 Entering Gaussian System, Link 0=g09
 Initial command:
 /usr/local/gaussian/g09/l1.exe "/scratch/treason/aniline.com/Gau-5654.inp" -scrdir="/scratch/treason/aniline.com/"
 Entering Link 1 = /usr/local/gaussian/g09/l1.exe PID=      5656.
  
 Copyright (c) 1988,1990,1992,1993,1995,1998,2003,2009,2013,
            Gaussian, Inc.  All Rights Reserved.
  
 This is part of the Gaussian(R) 09 program.  It is based on
 the Gaussian(R) 03 system (copyright 2003, Gaussian, Inc.),
 the Gaussian(R) 98 system (copyright 1998, Gaussian, Inc.),
 the Gaussian(R) 94 system (copyright 1995, Gaussian, Inc.),
 the Gaussian 92(TM) system (copyright 1992, Gaussian, Inc.),
 the Gaussian 90(TM) system (copyright 1990, Gaussian, Inc.),
 the Gaussian 88(TM) system (copyright 1988, Gaussian, Inc.),
 the Gaussian 86(TM) system (copyright 1986, Carnegie Mellon
 University), and the Gaussian 82(TM) system (copyright 1983,
 Carnegie Mellon University). Gaussian is a federally registered
 trademark of Gaussian, Inc.
  
 This software contains proprietary and confidential information,
 including trade secrets, belonging to Gaussian, Inc.
  
 This software is provided under written license and may be
 used, copied, transmitted, or stored only in accord with that
 written license.
  
 The following legend is applicable only to US Government
 contracts under FAR:
  
                    RESTRICTED RIGHTS LEGEND
  
 Use, reproduction and disclosure by the US Government is
 subject to restrictions as set forth in subparagraphs (a)
 and (c) of the Commercial Computer Software - Restricted
 Rights clause in FAR 52.227-19.
  
 Gaussian, Inc.
 340 Quinnipiac St., Bldg. 40, Wallingford CT 06492
  
  
 ---------------------------------------------------------------
 Warning -- This program may not be used in any manner that
 competes with the business of Gaussian, Inc. or will provide
 assistance to any competitor of Gaussian, Inc.  The licensee
 of this program is prohibited from giving any competitor of
 Gaussian, Inc. access to this program.  By using this program,
 the user acknowledges that Gaussian, Inc. is engaged in the
 business of creating and licensing software in the field of
 computational chemistry and represents and warrants to the
 licensee that it is not a competitor of Gaussian, Inc. and that
 it will not use this program in any manner prohibited above.
 ---------------------------------------------------------------
  

 Cite this work as:
 Gaussian 09, Revision D.01,
 M. J. Frisch, G. W. Trucks, H. B. Schlegel, G. E. Scuseria, 
 M. A. Robb, J. R. Cheeseman, G. Scalmani, V. Barone, B. Mennucci, 
 G. A. Petersson, H. Nakatsuji, M. Caricato, X. Li, H. P. Hratchian, 
 A. F. Izmaylov, J. Bloino, G. Zheng, J. L. Sonnenberg, M. Hada, 
 M. Ehara, K. Toyota, R. Fukuda, J. Hasegawa, M. Ishida, T. Nakajima, 
 Y. Honda, O. Kitao, H. Nakai, T. Vreven, J. A. Montgomery, Jr., 
 J. E. Peralta, F. Ogliaro, M. Bearpark, J. J. Heyd, E. Brothers, 
 K. N. Kudin, V. N. Staroverov, T. Keith, R. Kobayashi, J. Normand, 
 K. Raghavachari, A. Rendell, J. C. Burant, S. S. Iyengar, J. Tomasi, 
 M. Cossi, N. Rega, J. M. Millam, M. Klene, J. E. Knox, J. B. Cross, 
 V. Bakken, C. Adamo, J. Jaramillo, R. Gomperts, R. E. Stratmann, 
 O. Yazyev, A. J. Austin, R. Cammi, C. Pomelli, J. W. Ochterski, 
 R. L. Martin, K. Morokuma, V. G. Zakrzewski, G. A. Voth, 
 P. Salvador, J. J. Dannenberg, S. Dapprich, A. D. Daniels, 
 O. Farkas, J. B. Foresman, J. V. Ortiz, J. Cioslowski, 
 and D. J. Fox, Gaussian, Inc., Wallingford CT, 2013.
 
 ******************************************
 Gaussian 09:  EM64L-G09RevD.01 24-Apr-2013
                10-Jan-2020 
 ******************************************
 %chk=aniline.chk
 ------------------------
 # b3lyp/6-31g* opt=tight
 ------------------------
 1/7=10,14=-1,18=20,19=15,26=3,38=1/1,3;
 2/9=110,12=2,17=6,18=5,40=1/2;
 3/5=1,6=6,7=1,11=2,16=1,25=1,30=1,71=1,74=-5/1,2,3;
 4//1;
 5/5=2,38=5/2;
 6/7=2,8=2,9=2,10=2,28=1/1;
 7//1,2,3,16;
 1/7=10,14=-1,18=20,19=15,26=3/3(2);
 2/9=110/2;
 99//99;
 2/9=110/2;
 3/5=1,6=6,7=1,11=2,16=1,25=1,30=1,71=1,74=-5/1,2,3;
 4/5=5,16=3,69=1/1;
 5/5=2,38=5/2;
 7//1,2,3,16;
 1/7=10,14=-1,18=20,19=15,26=3/3(-5);
 2/9=110/2;
 6/7=2,8=2,9=2,10=2,19=2,28=1/1;
 99/9=1/99;
 -------------------
 Title Card Required
 -------------------
 Symbolic Z-matrix:
 Charge =  0 Multiplicity = 1
 C                    -0.53957   1.85851   0. 
 C                     0.85559   1.85851   0. 
 C                     1.55313   3.06626   0. 
 C                     0.85548   4.27477  -0.0012 
 C                    -0.53935   4.2747   -0.00168 
 C                    -1.23695   3.06649  -0.00068 
 H                    -1.08933   0.9062    0.00045 
 H                     1.4051    0.906     0.00132 
 H                     1.40568   5.22692  -0.00126 
 H                    -1.08947   5.22698  -0.00263 
 H                    -2.33655   3.06667  -0.00086 
 N                     3.02313   3.06637   0.00085 
 H                     3.35603   2.59534   0.81774 
 H                     3.35697   2.59464  -0.81525 
 

 GradGradGradGradGradGradGradGradGradGradGradGradGradGradGradGradGradGrad
 Berny optimization.
 Initialization pass.
                           ----------------------------
                           !    Initial Parameters    !
                           ! (Angstroms and Degrees)  !
 --------------------------                            --------------------------
 ! Name  Definition              Value          Derivative Info.                !
 --------------------------------------------------------------------------------
 ! R1    R(1,2)                  1.3952         estimate D2E/DX2                !
 ! R2    R(1,6)                  1.3948         estimate D2E/DX2                !
 ! R3    R(1,7)                  1.0996         estimate D2E/DX2                !
 ! R4    R(2,3)                  1.3947         estimate D2E/DX2                !
 ! R5    R(2,8)                  1.0997         estimate D2E/DX2                !
 ! R6    R(3,4)                  1.3954         estimate D2E/DX2                !
 ! R7    R(3,12)                 1.47           estimate D2E/DX2                !
 ! R8    R(4,5)                  1.3948         estimate D2E/DX2                !
 ! R9    R(4,9)                  1.0997         estimate D2E/DX2                !
 ! R10   R(5,6)                  1.3951         estimate D2E/DX2                !
 ! R11   R(5,10)                 1.0998         estimate D2E/DX2                !
 ! R12   R(6,11)                 1.0996         estimate D2E/DX2                !
 ! R13   R(12,13)                1.0            estimate D2E/DX2                !
 ! R14   R(12,14)                1.0            estimate D2E/DX2                !
 ! A1    A(2,1,6)              119.9985         estimate D2E/DX2                !
 ! A2    A(2,1,7)              119.9972         estimate D2E/DX2                !
 ! A3    A(6,1,7)              120.0043         estimate D2E/DX2                !
 ! A4    A(1,2,3)              120.0086         estimate D2E/DX2                !
 ! A5    A(1,2,8)              119.9808         estimate D2E/DX2                !
 ! A6    A(3,2,8)              120.0106         estimate D2E/DX2                !
 ! A7    A(2,3,4)              119.9942         estimate D2E/DX2                !
 ! A8    A(2,3,12)             120.0128         estimate D2E/DX2                !
 ! A9    A(4,3,12)             119.993          estimate D2E/DX2                !
 ! A10   A(3,4,5)              119.994          estimate D2E/DX2                !
 ! A11   A(3,4,9)              119.9811         estimate D2E/DX2                !
 ! A12   A(5,4,9)              120.0249         estimate D2E/DX2                !
 ! A13   A(4,5,6)              120.0047         estimate D2E/DX2                !
 ! A14   A(4,5,10)             120.0113         estimate D2E/DX2                !
 ! A15   A(6,5,10)             119.984          estimate D2E/DX2                !
 ! A16   A(1,6,5)              120.0            estimate D2E/DX2                !
 ! A17   A(1,6,11)             120.008          estimate D2E/DX2                !
 ! A18   A(5,6,11)             119.992          estimate D2E/DX2                !
 ! A19   A(3,12,13)            109.4712         estimate D2E/DX2                !
 ! A20   A(3,12,14)            109.4712         estimate D2E/DX2                !
 ! A21   A(13,12,14)           109.4713         estimate D2E/DX2                !
 ! D1    D(6,1,2,3)              0.0323         estimate D2E/DX2                !
 ! D2    D(6,1,2,8)            179.9532         estimate D2E/DX2                !
 ! D3    D(7,1,2,3)           -179.9729         estimate D2E/DX2                !
 ! D4    D(7,1,2,8)             -0.052          estimate D2E/DX2                !
 ! D5    D(2,1,6,5)              0.0149         estimate D2E/DX2                !
 ! D6    D(2,1,6,11)           179.9892         estimate D2E/DX2                !
 ! D7    D(7,1,6,5)           -179.9798         estimate D2E/DX2                !
 ! D8    D(7,1,6,11)            -0.0056         estimate D2E/DX2                !
 ! D9    D(1,2,3,4)             -0.0568         estimate D2E/DX2                !
 ! D10   D(1,2,3,12)           179.9619         estimate D2E/DX2                !
 ! D11   D(8,2,3,4)           -179.9777         estimate D2E/DX2                !
 ! D12   D(8,2,3,12)             0.041          estimate D2E/DX2                !
 ! D13   D(2,3,4,5)              0.0341         estimate D2E/DX2                !
 ! D14   D(2,3,4,9)           -179.9964         estimate D2E/DX2                !
 ! D15   D(12,3,4,5)          -179.9846         estimate D2E/DX2                !
 ! D16   D(12,3,4,9)            -0.0151         estimate D2E/DX2                !
 ! D17   D(2,3,12,13)          -60.0055         estimate D2E/DX2                !
 ! D18   D(2,3,12,14)           59.9945         estimate D2E/DX2                !
 ! D19   D(4,3,12,13)          120.0132         estimate D2E/DX2                !
 ! D20   D(4,3,12,14)         -119.9868         estimate D2E/DX2                !
 ! D21   D(3,4,5,6)              0.0131         estimate D2E/DX2                !
 ! D22   D(3,4,5,10)          -179.9995         estimate D2E/DX2                !
 ! D23   D(9,4,5,6)           -179.9563         estimate D2E/DX2                !
 ! D24   D(9,4,5,10)             0.0311         estimate D2E/DX2                !
 ! D25   D(4,5,6,1)             -0.0376         estimate D2E/DX2                !
 ! D26   D(4,5,6,11)           179.9881         estimate D2E/DX2                !
 ! D27   D(10,5,6,1)           179.975          estimate D2E/DX2                !
 ! D28   D(10,5,6,11)            0.0007         estimate D2E/DX2                !
 --------------------------------------------------------------------------------
 Trust Radius=3.00D-01 FncErr=1.00D-07 GrdErr=1.00D-06
 Number of steps in this run=     73 maximum allowed number of steps=    100.
 GradGradGradGradGradGradGradGradGradGradGradGradGradGradGradGradGradGrad

                          Input orientation:                          
 ---------------------------------------------------------------------
 Center     Atomic      Atomic             Coordinates (Angstroms)
 Number     Number       Type             X           Y           Z
 ---------------------------------------------------------------------
      1          6           0       -0.539568    1.858513    0.000000
      2          6           0        0.855592    1.858513    0.000000
      3          6           0        1.553130    3.066264    0.000000
      4          6           0        0.855476    4.274773   -0.001199
      5          6           0       -0.539349    4.274695   -0.001678
      6          6           0       -1.236950    3.066489   -0.000682
      7          1           0       -1.089327    0.906196    0.000450
      8          1           0        1.405100    0.906000    0.001315
      9          1           0        1.405676    5.226916   -0.001258
     10          1           0       -1.089471    5.226976   -0.002631
     11          1           0       -2.336554    3.066672   -0.000862
     12          7           0        3.023129    3.066371    0.000848
     13          1           0        3.356026    2.595341    0.817739
     14          1           0        3.356967    2.594641   -0.815255
 ---------------------------------------------------------------------
                    Distance matrix (angstroms):
                    1          2          3          4          5
     1  C    0.000000
     2  C    1.395160   0.000000
     3  C    2.416205   1.394712   0.000000
     4  C    2.790065   2.416260   1.395427   0.000000
     5  C    2.416183   2.789946   2.416356   1.394825   0.000000
     6  C    1.394829   2.416183   2.790080   2.416236   1.395138
     7  H    1.099610   2.165553   3.412986   3.889675   3.413102
     8  H    2.165414   1.099655   2.165330   3.413316   3.889601
     9  H    3.889745   3.413024   2.165678   1.099680   2.165606
    10  H    3.413055   3.889707   3.413506   2.165528   1.099761
    11  H    2.165365   3.413128   3.889684   3.412999   2.165471
    12  N    3.761879   2.481359   1.470000   2.481726   3.761822
    13  H    4.048119   2.731992   2.034920   3.121522   4.320373
    14  H    4.048396   2.731923   2.034920   3.121377   4.320390
                    6          7          8          9         10
     6  C    0.000000
     7  H    2.165331   0.000000
     8  H    3.412938   2.494427   0.000000
     9  H    3.413344   4.989355   4.320917   0.000000
    10  H    2.165516   4.320781   4.989362   2.495147   0.000000
    11  H    1.099604   2.494641   4.320704   4.320988   2.494420
    12  N    4.260080   4.645283   2.699115   2.698910   4.645612
    13  H    4.689053   4.825177   2.706757   3.376360   5.230770
    14  H    4.689376   4.825532   2.707043   3.376241   5.230714
                   11         12         13         14
    11  H    0.000000
    12  N    5.359684   0.000000
    13  H    5.770418   1.000000   0.000000
    14  H    5.770809   1.000000   1.632993   0.000000
 Stoichiometry    C6H7N
 Framework group  C1[X(C6H7N)]
 Deg. of freedom    36
 Full point group                 C1      NOp   1
 Largest Abelian subgroup         C1      NOp   1
 Largest concise Abelian subgroup C1      NOp   1
                         Standard orientation:                         
 ---------------------------------------------------------------------
 Center     Atomic      Atomic             Coordinates (Angstroms)
 Number     Number       Type             X           Y           Z
 ---------------------------------------------------------------------
      1          6           0        1.124764    1.238453    0.000023
      2          6           0       -0.269116    1.178699   -0.000508
      3          6           0       -0.914286   -0.057819   -0.000019
      4          6           0       -0.165512   -1.235339   -0.000197
      5          6           0        1.228030   -1.175522   -0.000145
      6          6           0        1.873243    0.061454    0.000362
      7          1           0        1.633231    2.213443    0.000087
      8          1           0       -0.858916    2.106803    0.000003
      9          1           0       -0.674427   -2.210174    0.000130
     10          1           0        1.818433   -2.103367   -0.000293
     11          1           0        2.971846    0.108367    0.000600
     12          7           0       -2.382933   -0.120885    0.000270
     13          1           0       -2.736030    0.335951    0.816739
     14          1           0       -2.736336    0.335618   -0.816254
 ---------------------------------------------------------------------
 Rotational constants (GHZ):      5.5785571      2.5431374      1.7631863
 Standard basis: 6-31G(d) (6D, 7F)
 There are   119 symmetry adapted cartesian basis functions of A   symmetry.
 There are   119 symmetry adapted basis functions of A   symmetry.
   119 basis functions,   224 primitive gaussians,   119 cartesian basis functions
    25 alpha electrons       25 beta electrons
       nuclear repulsion energy       269.7693664726 Hartrees.
 NAtoms=   14 NActive=   14 NUniq=   14 SFac= 1.00D+00 NAtFMM=   60 NAOKFM=F Big=F
 Integral buffers will be    131072 words long.
 Raffenetti 2 integral format.
 Two-electron integral symmetry is turned on.
 One-electron integrals computed using PRISM.
 NBasis=   119 RedAO= T EigKep=  4.60D-04  NBF=   119
 NBsUse=   119 1.00D-06 EigRej= -1.00D+00 NBFU=   119
 ExpMin= 1.61D-01 ExpMax= 4.17D+03 ExpMxC= 6.27D+02 IAcc=1 IRadAn=         1 AccDes= 0.00D+00
 Harris functional with IExCor=  402 and IRadAn=       1 diagonalized for initial guess.
 HarFok:  IExCor=  402 AccDes= 0.00D+00 IRadAn=         1 IDoV= 1 UseB2=F ITyADJ=14
 ICtDFT=  3500011 ScaDFX=  1.000000  1.000000  1.000000  1.000000
 FoFCou: FMM=F IPFlag=           0 FMFlag=      100000 FMFlg1=           0
         NFxFlg=           0 DoJE=T BraDBF=F KetDBF=T FulRan=T
         wScrn=  0.000000 ICntrl=     500 IOpCl=  0 I1Cent=   200000004 NGrid=           0
         NMat0=    1 NMatS0=      1 NMatT0=    0 NMatD0=    1 NMtDS0=    0 NMtDT0=    0
 Petite list used in FoFCou.
 Keep R1 ints in memory in canonical form, NReq=26496076.
 Requested convergence on RMS density matrix=1.00D-08 within 128 cycles.
 Requested convergence on MAX density matrix=1.00D-06.
 Requested convergence on             energy=1.00D-06.
 No special actions if energy rises.
 Integral accuracy reduced to 1.0D-05 until final iterations.
 Initial convergence to 1.0D-05 achieved.  Increase integral accuracy.
 SCF Done:  E(RB3LYP) =  -287.590561482     A.U. after   13 cycles
            NFock= 13  Conv=0.95D-08     -V/T= 2.0100

 **********************************************************************

            Population analysis using the SCF density.

 **********************************************************************

 Orbital symmetries:
       Occupied  (A) (A) (A) (A) (A) (A) (A) (A) (A) (A) (A) (A)
                 (A) (A) (A) (A) (A) (A) (A) (A) (A) (A) (A) (A)
                 (A)
       Virtual   (A) (A) (A) (A) (A) (A) (A) (A) (A) (A) (A) (A)
                 (A) (A) (A) (A) (A) (A) (A) (A) (A) (A) (A) (A)
                 (A) (A) (A) (A) (A) (A) (A) (A) (A) (A) (A) (A)
                 (A) (A) (A) (A) (A) (A) (A) (A) (A) (A) (A) (A)
                 (A) (A) (A) (A) (A) (A) (A) (A) (A) (A) (A) (A)
                 (A) (A) (A) (A) (A) (A) (A) (A) (A) (A) (A) (A)
                 (A) (A) (A) (A) (A) (A) (A) (A) (A) (A) (A) (A)
                 (A) (A) (A) (A) (A) (A) (A) (A) (A) (A)
 The electronic state is 1-A.
 Alpha  occ. eigenvalues --  -14.31387 -10.21576 -10.18932 -10.18821 -10.18719
 Alpha  occ. eigenvalues --  -10.18634 -10.18365  -0.89192  -0.83161  -0.74028
 Alpha  occ. eigenvalues --   -0.72073  -0.60023  -0.58645  -0.51174  -0.48816
 Alpha  occ. eigenvalues --   -0.46052  -0.44611  -0.41991  -0.41570  -0.35666
 Alpha  occ. eigenvalues --   -0.35012  -0.34306  -0.24731  -0.24265  -0.24231
 Alpha virt. eigenvalues --    0.00126   0.00613   0.09183   0.09524   0.14298
 Alpha virt. eigenvalues --    0.14679   0.15574   0.18469   0.19016   0.19260
 Alpha virt. eigenvalues --    0.25187   0.30489   0.30967   0.34213   0.35016
 Alpha virt. eigenvalues --    0.48357   0.52832   0.54072   0.55498   0.56556
 Alpha virt. eigenvalues --    0.59676   0.59841   0.60454   0.60946   0.62047
 Alpha virt. eigenvalues --    0.63025   0.65162   0.66428   0.67892   0.73267
 Alpha virt. eigenvalues --    0.75907   0.81004   0.82444   0.83216   0.83555
 Alpha virt. eigenvalues --    0.84974   0.86133   0.90196   0.92992   0.93406
 Alpha virt. eigenvalues --    0.95148   0.96404   1.01259   1.07849   1.11741
 Alpha virt. eigenvalues --    1.14419   1.19164   1.19889   1.25923   1.35522
 Alpha virt. eigenvalues --    1.39194   1.43757   1.44866   1.46356   1.48555
 Alpha virt. eigenvalues --    1.49879   1.51626   1.78033   1.79970   1.80310
 Alpha virt. eigenvalues --    1.88495   1.90729   1.92102   1.93615   1.96276
 Alpha virt. eigenvalues --    2.06591   2.08358   2.13067   2.14842   2.18176
 Alpha virt. eigenvalues --    2.21316   2.27990   2.29250   2.31119   2.37393
 Alpha virt. eigenvalues --    2.43353   2.49803   2.56926   2.59047   2.67464
 Alpha virt. eigenvalues --    2.72139   2.72809   2.73275   2.79554   2.88277
 Alpha virt. eigenvalues --    3.07006   3.41253   3.83543   4.08766   4.11587
 Alpha virt. eigenvalues --    4.13008   4.32958   4.35774   4.68862
          Condensed to atoms (all electrons):
               1          2          3          4          5          6
     1  C    4.903996   0.481719  -0.012364  -0.039176  -0.029193   0.553670
     2  C    0.481719   5.035408   0.532102  -0.063396  -0.040168  -0.040923
     3  C   -0.012364   0.532102   4.611512   0.580635  -0.021598  -0.037899
     4  C   -0.039176  -0.063396   0.580635   4.895202   0.522290  -0.037034
     5  C   -0.029193  -0.040168  -0.021598   0.522290   4.885413   0.548069
     6  C    0.553670  -0.040923  -0.037899  -0.037034   0.548069   4.856713
     7  H    0.350187  -0.034468   0.003086   0.000719   0.004481  -0.042157
     8  H   -0.040604   0.350820  -0.045908   0.005330   0.000411   0.004730
     9  H    0.000054   0.006626  -0.033884   0.345301  -0.045888   0.004898
    10  H    0.004510   0.000682   0.004030  -0.038284   0.355401  -0.043070
    11  H   -0.042192   0.004744   0.000687   0.004367  -0.042445   0.357432
    12  N    0.007581  -0.080216   0.301488  -0.047134   0.004171   0.000406
    13  H    0.000238   0.000433  -0.040923   0.001180  -0.000163   0.000011
    14  H    0.000238   0.000440  -0.040931   0.001174  -0.000163   0.000010
               7          8          9         10         11         12
     1  C    0.350187  -0.040604   0.000054   0.004510  -0.042192   0.007581
     2  C   -0.034468   0.350820   0.006626   0.000682   0.004744  -0.080216
     3  C    0.003086  -0.045908  -0.033884   0.004030   0.000687   0.301488
     4  C    0.000719   0.005330   0.345301  -0.038284   0.004367  -0.047134
     5  C    0.004481   0.000411  -0.045888   0.355401  -0.042445   0.004171
     6  C   -0.042157   0.004730   0.004898  -0.043070   0.357432   0.000406
     7  H    0.601772  -0.005812   0.000018  -0.000188  -0.005455  -0.000148
     8  H   -0.005812   0.611950  -0.000168   0.000016  -0.000175  -0.004951
     9  H    0.000018  -0.000168   0.590609  -0.005909  -0.000162   0.000956
    10  H   -0.000188   0.000016  -0.005909   0.598211  -0.005519  -0.000114
    11  H   -0.005455  -0.000175  -0.000162  -0.005519   0.601733   0.000004
    12  N   -0.000148  -0.004951   0.000956  -0.000114   0.000004   6.957330
    13  H   -0.000002   0.002138  -0.000103   0.000004   0.000000   0.320812
    14  H   -0.000002   0.002135  -0.000103   0.000004   0.000000   0.320829
              13         14
     1  C    0.000238   0.000238
     2  C    0.000433   0.000440
     3  C   -0.040923  -0.040931
     4  C    0.001180   0.001174
     5  C   -0.000163  -0.000163
     6  C    0.000011   0.000010
     7  H   -0.000002  -0.000002
     8  H    0.002138   0.002135
     9  H   -0.000103  -0.000103
    10  H    0.000004   0.000004
    11  H    0.000000   0.000000
    12  N    0.320812   0.320829
    13  H    0.434961  -0.032149
    14  H   -0.032149   0.434949
 Mulliken charges:
               1
     1  C   -0.138663
     2  C   -0.153801
     3  C    0.199968
     4  C   -0.131174
     5  C   -0.140618
     6  C   -0.124857
     7  H    0.127968
     8  H    0.120090
     9  H    0.137757
    10  H    0.130225
    11  H    0.126983
    12  N   -0.781013
    13  H    0.313565
    14  H    0.313571
 Sum of Mulliken charges =   0.00000
 Mulliken charges with hydrogens summed into heavy atoms:
               1
     1  C   -0.010695
     2  C   -0.033712
     3  C    0.199968
     4  C    0.006583
     5  C   -0.010392
     6  C    0.002125
    12  N   -0.153877
 Electronic spatial extent (au):  <R**2>=            692.8334
 Charge=              0.0000 electrons
 Dipole moment (field-independent basis, Debye):
    X=              0.0883    Y=              1.3045    Z=              0.0003  Tot=              1.3075
 Quadrupole moment (field-independent basis, Debye-Ang):
   XX=            -37.7048   YY=            -38.0677   ZZ=            -42.5609
   XY=             -4.3928   XZ=              0.0012   YZ=              0.0017
 Traceless Quadrupole moment (field-independent basis, Debye-Ang):
   XX=              1.7397   YY=              1.3768   ZZ=             -3.1164
   XY=             -4.3928   XZ=              0.0012   YZ=              0.0017
 Octapole moment (field-independent basis, Debye-Ang**2):
  XXX=             -1.7777  YYY=              0.1560  ZZZ=              0.0031  XYY=              1.8891
  XXY=             12.6855  XXZ=             -0.0011  XZZ=             -8.8358  YZZ=              0.7605
  YYZ=              0.0016  XYZ=             -0.0018
 Hexadecapole moment (field-independent basis, Debye-Ang**3):
 XXXX=           -536.6836 YYYY=           -277.9133 ZZZZ=            -47.2151 XXXY=            -37.8362
 XXXZ=              0.0183 YYYX=             -3.2781 YYYZ=              0.0038 ZZZX=             -0.0052
 ZZZY=              0.0022 XXYY=           -142.7311 XXZZ=            -96.0203 YYZZ=            -63.1750
 XXYZ=              0.0096 YYXZ=             -0.0031 ZZXY=             -2.6137
 N-N= 2.697693664726D+02 E-N=-1.206273665232D+03  KE= 2.847424266197D+02
 Calling FoFJK, ICntrl=      2127 FMM=F ISym2X=0 I1Cent= 0 IOpClX= 0 NMat=1 NMatS=1 NMatT=0.
 ***** Axes restored to original set *****
 -------------------------------------------------------------------
 Center     Atomic                   Forces (Hartrees/Bohr)
 Number     Number              X              Y              Z
 -------------------------------------------------------------------
      1        6          -0.004700798   -0.008420478   -0.000012480
      2        6          -0.003803191   -0.008044125    0.000112812
      3        6           0.021626832   -0.003377604   -0.000043508
      4        6           0.004153301    0.010071938    0.000030740
      5        6          -0.005153222    0.005935178    0.000014135
      6        6          -0.010742458    0.000566713   -0.000055789
      7        1           0.004108132    0.007020380    0.000001496
      8        1          -0.003212179    0.007331467   -0.000043727
      9        1          -0.002101807   -0.009525523   -0.000015465
     10        1           0.004514650   -0.007212013    0.000015883
     11        1           0.008302622   -0.000124470    0.000005393
     12        7          -0.026910789    0.024724954   -0.000025536
     13        1           0.006952881   -0.009469764    0.009957462
     14        1           0.006966026   -0.009476653   -0.009941417
 -------------------------------------------------------------------
 Cartesian Forces:  Max     0.026910789 RMS     0.008624575

 GradGradGradGradGradGradGradGradGradGradGradGradGradGradGradGradGradGrad
 Berny optimization.
 FormGI is forming the generalized inverse of G from B-inverse, IUseBI=4.
 Internal  Forces:  Max     0.014907868 RMS     0.004414299
 Search for a local minimum.
 Step number   1 out of a maximum of   73
 All quantities printed in internal units (Hartrees-Bohrs-Radians)
 Mixed Optimization -- RFO/linear search
 Second derivative matrix not updated -- first step.
 ITU=  0
     Eigenvalues ---    0.00766   0.01727   0.02152   0.02153   0.02154
     Eigenvalues ---    0.02155   0.02155   0.02155   0.02156   0.02157
     Eigenvalues ---    0.05453   0.16000   0.16000   0.16000   0.16000
     Eigenvalues ---    0.16000   0.16000   0.16000   0.22000   0.22000
     Eigenvalues ---    0.23486   0.25000   0.33709   0.33718   0.33720
     Eigenvalues ---    0.33725   0.33726   0.35740   0.42116   0.42305
     Eigenvalues ---    0.46412   0.46453   0.46466   0.46497   0.47688
     Eigenvalues ---    0.47688
 RFO step:  Lambda=-3.59692008D-03 EMin= 7.65814525D-03
 Linear search not attempted -- first point.
 Iteration  1 RMS(Cart)=  0.01684721 RMS(Int)=  0.00026342
 Iteration  2 RMS(Cart)=  0.00023760 RMS(Int)=  0.00000687
 Iteration  3 RMS(Cart)=  0.00000020 RMS(Int)=  0.00000687
 Variable       Old X    -DE/DX   Delta X   Delta X   Delta X     New X
                                 (Linear)    (Quad)   (Total)
    R1        2.63647   0.00139   0.00000   0.00313   0.00313   2.63960
    R2        2.63584   0.00084   0.00000   0.00182   0.00181   2.63766
    R3        2.07796  -0.00813   0.00000  -0.02386  -0.02386   2.05410
    R4        2.63562   0.00559   0.00000   0.01207   0.01207   2.64770
    R5        2.07805  -0.00796   0.00000  -0.02334  -0.02334   2.05470
    R6        2.63697  -0.00058   0.00000  -0.00126  -0.00126   2.63572
    R7        2.77790  -0.01299   0.00000  -0.03598  -0.03598   2.74191
    R8        2.63584   0.00228   0.00000   0.00471   0.00472   2.64055
    R9        2.07809  -0.00930   0.00000  -0.02729  -0.02729   2.05080
   R10        2.63643   0.00088   0.00000   0.00175   0.00175   2.63817
   R11        2.07825  -0.00850   0.00000  -0.02496  -0.02496   2.05329
   R12        2.07795  -0.00830   0.00000  -0.02436  -0.02436   2.05359
   R13        1.88973   0.01491   0.00000   0.03103   0.03103   1.92075
   R14        1.88973   0.01491   0.00000   0.03103   0.03103   1.92075
    A1        2.09437  -0.00025   0.00000  -0.00100  -0.00102   2.09335
    A2        2.09435   0.00007   0.00000   0.00018   0.00018   2.09453
    A3        2.09447   0.00018   0.00000   0.00083   0.00083   2.09530
    A4        2.09455   0.00198   0.00000   0.00917   0.00917   2.10371
    A5        2.09406  -0.00007   0.00000   0.00103   0.00103   2.09509
    A6        2.09458  -0.00191   0.00000  -0.01020  -0.01020   2.08438
    A7        2.09429  -0.00327   0.00000  -0.01293  -0.01292   2.08138
    A8        2.09462   0.00991   0.00000   0.03909   0.03909   2.13371
    A9        2.09427  -0.00664   0.00000  -0.02617  -0.02617   2.06810
   A10        2.09429   0.00127   0.00000   0.00503   0.00504   2.09933
   A11        2.09407  -0.00370   0.00000  -0.02121  -0.02121   2.07285
   A12        2.09483   0.00242   0.00000   0.01618   0.01617   2.11100
   A13        2.09448   0.00141   0.00000   0.00538   0.00538   2.09985
   A14        2.09459  -0.00101   0.00000  -0.00458  -0.00458   2.09001
   A15        2.09411  -0.00039   0.00000  -0.00079  -0.00079   2.09332
   A16        2.09440  -0.00114   0.00000  -0.00564  -0.00565   2.08875
   A17        2.09453   0.00044   0.00000   0.00201   0.00202   2.09655
   A18        2.09426   0.00070   0.00000   0.00362   0.00363   2.09789
   A19        1.91063   0.00198   0.00000   0.00465   0.00463   1.91526
   A20        1.91063   0.00199   0.00000   0.00467   0.00465   1.91529
   A21        1.91063  -0.00401   0.00000  -0.03945  -0.03948   1.87116
    D1        0.00056  -0.00001   0.00000  -0.00057  -0.00057   0.00000
    D2        3.14078   0.00002   0.00000   0.00076   0.00076   3.14154
    D3       -3.14112  -0.00001   0.00000  -0.00057  -0.00057   3.14150
    D4       -0.00091   0.00002   0.00000   0.00076   0.00077  -0.00014
    D5        0.00026  -0.00001   0.00000  -0.00034  -0.00034  -0.00008
    D6        3.14140   0.00000   0.00000   0.00019   0.00019  -3.14159
    D7       -3.14124  -0.00001   0.00000  -0.00034  -0.00034  -3.14158
    D8       -0.00010   0.00001   0.00000   0.00019   0.00019   0.00010
    D9       -0.00099   0.00003   0.00000   0.00104   0.00104   0.00005
   D10        3.14093   0.00002   0.00000   0.00068   0.00067  -3.14159
   D11       -3.14120  -0.00001   0.00000  -0.00030  -0.00029  -3.14150
   D12        0.00072  -0.00002   0.00000  -0.00066  -0.00066   0.00005
   D13        0.00060  -0.00002   0.00000  -0.00061  -0.00060  -0.00001
   D14       -3.14153   0.00000   0.00000  -0.00013  -0.00013   3.14153
   D15       -3.14132  -0.00001   0.00000  -0.00023  -0.00024  -3.14156
   D16       -0.00026   0.00001   0.00000   0.00025   0.00024  -0.00003
   D17       -1.04729   0.00124   0.00000   0.02155   0.02154  -1.02576
   D18        1.04710  -0.00123   0.00000  -0.02107  -0.02105   1.02605
   D19        2.09463   0.00124   0.00000   0.02118   0.02117   2.11579
   D20       -2.09416  -0.00124   0.00000  -0.02143  -0.02142  -2.11558
   D21        0.00023  -0.00001   0.00000  -0.00030  -0.00030  -0.00007
   D22       -3.14158   0.00000   0.00000   0.00007   0.00007  -3.14152
   D23       -3.14083  -0.00002   0.00000  -0.00077  -0.00078   3.14158
   D24        0.00054  -0.00001   0.00000  -0.00040  -0.00041   0.00014
   D25       -0.00066   0.00002   0.00000   0.00077   0.00077   0.00012
   D26        3.14138   0.00001   0.00000   0.00024   0.00024  -3.14156
   D27        3.14116   0.00001   0.00000   0.00040   0.00040   3.14156
   D28        0.00001   0.00000   0.00000  -0.00013  -0.00013  -0.00012
         Item               Value     Threshold  Converged?
 Maximum Force            0.014908     0.000015     NO 
 RMS     Force            0.004414     0.000010     NO 
 Maximum Displacement     0.063716     0.000060     NO 
 RMS     Displacement     0.016776     0.000040     NO 
 Predicted change in Energy=-1.822244D-03
 GradGradGradGradGradGradGradGradGradGradGradGradGradGradGradGradGradGrad

                          Input orientation:                          
 ---------------------------------------------------------------------
 Center     Atomic      Atomic             Coordinates (Angstroms)
 Number     Number       Type             X           Y           Z
 ---------------------------------------------------------------------
      1          6           0       -0.551421    1.854770    0.000060
      2          6           0        0.845390    1.852143    0.000610
      3          6           0        1.559485    3.057610    0.000080
      4          6           0        0.859907    4.264238   -0.000948
      5          6           0       -0.537407    4.268589   -0.001453
      6          6           0       -1.245777    3.065592   -0.001021
      7          1           0       -1.096808    0.914512    0.000389
      8          1           0        1.387925    0.909868    0.001502
      9          1           0        1.420954    5.193199   -0.001291
     10          1           0       -1.073612    5.213617   -0.002327
     11          1           0       -2.332477    3.071116   -0.001446
     12          7           0        3.009869    3.098396    0.000614
     13          1           0        3.366601    2.612781    0.819166
     14          1           0        3.367247    2.611929   -0.817150
 ---------------------------------------------------------------------
                    Distance matrix (angstroms):
                    1          2          3          4          5
     1  C    0.000000
     2  C    1.396814   0.000000
     3  C    2.429558   1.401100   0.000000
     4  C    2.792380   2.412139   1.394762   0.000000
     5  C    2.413860   2.784123   2.421451   1.397321   0.000000
     6  C    1.395787   2.417735   2.805274   2.422944   1.396062
     7  H    1.086983   2.156684   3.413029   3.879356   3.400407
     8  H    2.157291   1.087303   2.154584   3.395675   3.871423
     9  H    3.877548   3.390270   2.140078   1.085239   2.165660
    10  H    3.399198   3.870670   3.403171   2.154024   1.086552
    11  H    2.156771   3.403636   3.891986   3.408058   2.157827
    12  N    3.772187   2.497622   1.450958   2.445716   3.735307
    13  H    4.073869   2.757736   2.033333   3.111818   4.319304
    14  H    4.073952   2.757856   2.033347   3.111762   4.319283
                    6          7          8          9         10
     6  C    0.000000
     7  H    2.156233   0.000000
     8  H    3.403460   2.484738   0.000000
     9  H    3.411476   4.964504   4.283460   0.000000
    10  H    2.154914   4.299169   4.957967   2.494650   0.000000
    11  H    1.086714   2.485523   4.302603   4.311785   2.484966
    12  N    4.255773   4.651253   2.724034   2.629230   4.598803
    13  H    4.706567   4.845259   2.735626   3.334253   5.211016
    14  H    4.706577   4.845347   2.735858   3.334162   5.210945
                   11         12         13         14
    11  H    0.000000
    12  N    5.342416   0.000000
    13  H    5.776068   1.016419   0.000000
    14  H    5.776078   1.016419   1.636316   0.000000
 Stoichiometry    C6H7N
 Framework group  C1[X(C6H7N)]
 Deg. of freedom    36
 Full point group                 C1      NOp   1
 Largest Abelian subgroup         C1      NOp   1
 Largest concise Abelian subgroup C1      NOp   1
                         Standard orientation:                         
 ---------------------------------------------------------------------
 Center     Atomic      Atomic             Coordinates (Angstroms)
 Number     Number       Type             X           Y           Z
 ---------------------------------------------------------------------
      1          6           0        1.152179    1.225037    0.000004
      2          6           0       -0.244182    1.189498    0.000018
      3          6           0       -0.925074   -0.035030   -0.000010
      4          6           0       -0.192788   -1.222093    0.000005
      5          6           0        1.204123   -1.188264    0.000038
      6          6           0        1.879359    0.033638   -0.000033
      7          1           0        1.671672    2.179846   -0.000063
      8          1           0       -0.812260    2.116599    0.000097
      9          1           0       -0.728245   -2.166037    0.000044
     10          1           0        1.765948   -2.118289   -0.000024
     11          1           0        2.965805    0.057808   -0.000039
     12          7           0       -2.373802   -0.115429   -0.000005
     13          1           0       -2.743996    0.360775    0.818099
     14          1           0       -2.744011    0.360575   -0.818218
 ---------------------------------------------------------------------
 Rotational constants (GHZ):      5.6033244      2.5442709      1.7662669
 Standard basis: 6-31G(d) (6D, 7F)
 There are   119 symmetry adapted cartesian basis functions of A   symmetry.
 There are   119 symmetry adapted basis functions of A   symmetry.
   119 basis functions,   224 primitive gaussians,   119 cartesian basis functions
    25 alpha electrons       25 beta electrons
       nuclear repulsion energy       270.0375196445 Hartrees.
 NAtoms=   14 NActive=   14 NUniq=   14 SFac= 1.00D+00 NAtFMM=   60 NAOKFM=F Big=F
 Integral buffers will be    131072 words long.
 Raffenetti 2 integral format.
 Two-electron integral symmetry is turned on.
 One-electron integrals computed using PRISM.
 NBasis=   119 RedAO= T EigKep=  4.59D-04  NBF=   119
 NBsUse=   119 1.00D-06 EigRej= -1.00D+00 NBFU=   119
 Initial guess from the checkpoint file:  "aniline.chk"
 B after Tr=     0.000000    0.000000    0.000000
         Rot=    0.999976   -0.000003    0.000002    0.006870 Ang=  -0.79 deg.
 ExpMin= 1.61D-01 ExpMax= 4.17D+03 ExpMxC= 6.27D+02 IAcc=1 IRadAn=         1 AccDes= 0.00D+00
 Harris functional with IExCor=  402 and IRadAn=       1 diagonalized for initial guess.
 HarFok:  IExCor=  402 AccDes= 0.00D+00 IRadAn=         1 IDoV= 1 UseB2=F ITyADJ=14
 ICtDFT=  3500011 ScaDFX=  1.000000  1.000000  1.000000  1.000000
 FoFCou: FMM=F IPFlag=           0 FMFlag=      100000 FMFlg1=           0
         NFxFlg=           0 DoJE=T BraDBF=F KetDBF=T FulRan=T
         wScrn=  0.000000 ICntrl=     500 IOpCl=  0 I1Cent=   200000004 NGrid=           0
         NMat0=    1 NMatS0=      1 NMatT0=    0 NMatD0=    1 NMtDS0=    0 NMtDT0=    0
 Petite list used in FoFCou.
 Keep R1 ints in memory in canonical form, NReq=26496076.
 Requested convergence on RMS density matrix=1.00D-08 within 128 cycles.
 Requested convergence on MAX density matrix=1.00D-06.
 Requested convergence on             energy=1.00D-06.
 No special actions if energy rises.
 Integral accuracy reduced to 1.0D-05 until final iterations.
 Initial convergence to 1.0D-05 achieved.  Increase integral accuracy.
 SCF Done:  E(RB3LYP) =  -287.592594012     A.U. after   12 cycles
            NFock= 12  Conv=0.34D-08     -V/T= 2.0098
 Calling FoFJK, ICntrl=      2127 FMM=F ISym2X=0 I1Cent= 0 IOpClX= 0 NMat=1 NMatS=1 NMatT=0.
 ***** Axes restored to original set *****
 -------------------------------------------------------------------
 Center     Atomic                   Forces (Hartrees/Bohr)
 Number     Number              X              Y              Z
 -------------------------------------------------------------------
      1        6           0.001461484   -0.000155985   -0.000006016
      2        6          -0.002624124    0.000142593    0.000001556
      3        6           0.005457564   -0.002564874    0.000007064
      4        6          -0.002742150    0.001363768    0.000002331
      5        6          -0.000008675   -0.000140698   -0.000013317
      6        6          -0.000058375    0.000935655    0.000007536
      7        1           0.000247627   -0.000225350    0.000003806
      8        1           0.000387606   -0.000445957   -0.000003107
      9        1           0.000732742   -0.000114075   -0.000001531
     10        1          -0.000085577    0.000339013    0.000004004
     11        1          -0.000046931    0.000063004   -0.000001528
     12        7          -0.006209458    0.004757724   -0.000003159
     13        1           0.001744695   -0.001977532    0.000336874
     14        1           0.001743574   -0.001977287   -0.000334513
 -------------------------------------------------------------------
 Cartesian Forces:  Max     0.006209458 RMS     0.001773959

 GradGradGradGradGradGradGradGradGradGradGradGradGradGradGradGradGradGrad
 Berny optimization.
 Using GEDIIS/GDIIS optimizer.
 FormGI is forming the generalized inverse of G from B-inverse, IUseBI=4.
 Internal  Forces:  Max     0.002696935 RMS     0.000781168
 Search for a local minimum.
 Step number   2 out of a maximum of   73
 All quantities printed in internal units (Hartrees-Bohrs-Radians)
 Mixed Optimization -- En-DIIS/RFO-DIIS
 Update second derivatives using D2CorX and points    1    2
 DE= -2.03D-03 DEPred=-1.82D-03 R= 1.12D+00
 TightC=F SS=  1.41D+00  RLast= 1.15D-01 DXNew= 5.0454D-01 3.4611D-01
 Trust test= 1.12D+00 RLast= 1.15D-01 DXMaxT set to 3.46D-01
 ITU=  1  0
 Use linear search instead of GDIIS.
     Eigenvalues ---    0.00766   0.01721   0.02152   0.02153   0.02154
     Eigenvalues ---    0.02155   0.02155   0.02155   0.02156   0.02157
     Eigenvalues ---    0.05354   0.15012   0.16000   0.16000   0.16000
     Eigenvalues ---    0.16000   0.16000   0.16053   0.21976   0.22025
     Eigenvalues ---    0.23167   0.24324   0.33647   0.33711   0.33720
     Eigenvalues ---    0.33726   0.34384   0.35854   0.42140   0.42262
     Eigenvalues ---    0.45418   0.46424   0.46467   0.46603   0.47688
     Eigenvalues ---    0.48463
 RFO step:  Lambda=-1.31875792D-04 EMin= 7.65814494D-03
 Quartic linear search produced a step of  0.14392.
 Iteration  1 RMS(Cart)=  0.00398882 RMS(Int)=  0.00003866
 Iteration  2 RMS(Cart)=  0.00003661 RMS(Int)=  0.00000088
 Iteration  3 RMS(Cart)=  0.00000000 RMS(Int)=  0.00000088
 Variable       Old X    -DE/DX   Delta X   Delta X   Delta X     New X
                                 (Linear)    (Quad)   (Total)
    R1        2.63960  -0.00107   0.00045  -0.00304  -0.00259   2.63700
    R2        2.63766   0.00105   0.00026   0.00227   0.00253   2.64019
    R3        2.05410   0.00007  -0.00343   0.00289  -0.00055   2.05355
    R4        2.64770   0.00045   0.00174  -0.00016   0.00158   2.64928
    R5        2.05470   0.00058  -0.00336   0.00456   0.00120   2.05590
    R6        2.63572   0.00217  -0.00018   0.00560   0.00542   2.64114
    R7        2.74191  -0.00270  -0.00518  -0.00464  -0.00982   2.73209
    R8        2.64055  -0.00044   0.00068  -0.00153  -0.00085   2.63970
    R9        2.05080   0.00028  -0.00393   0.00398   0.00005   2.05085
   R10        2.63817  -0.00040   0.00025  -0.00123  -0.00098   2.63720
   R11        2.05329   0.00034  -0.00359   0.00391   0.00032   2.05360
   R12        2.05359   0.00005  -0.00351   0.00286  -0.00064   2.05295
   R13        1.92075   0.00183   0.00447   0.00097   0.00543   1.92619
   R14        1.92075   0.00183   0.00447   0.00097   0.00543   1.92619
    A1        2.09335   0.00053  -0.00015   0.00237   0.00222   2.09557
    A2        2.09453  -0.00060   0.00003  -0.00356  -0.00353   2.09100
    A3        2.09530   0.00008   0.00012   0.00119   0.00131   2.09662
    A4        2.10371   0.00001   0.00132  -0.00109   0.00023   2.10395
    A5        2.09509   0.00011   0.00015   0.00075   0.00090   2.09599
    A6        2.08438  -0.00012  -0.00147   0.00034  -0.00113   2.08325
    A7        2.08138  -0.00084  -0.00186  -0.00213  -0.00398   2.07739
    A8        2.13371   0.00190   0.00563   0.00419   0.00981   2.14352
    A9        2.06810  -0.00106  -0.00377  -0.00206  -0.00583   2.06227
   A10        2.09933   0.00067   0.00073   0.00322   0.00395   2.10328
   A11        2.07285  -0.00104  -0.00305  -0.00450  -0.00755   2.06530
   A12        2.11100   0.00037   0.00233   0.00128   0.00360   2.11460
   A13        2.09985  -0.00047   0.00077  -0.00310  -0.00233   2.09752
   A14        2.09001   0.00014  -0.00066   0.00110   0.00044   2.09045
   A15        2.09332   0.00033  -0.00011   0.00200   0.00189   2.09521
   A16        2.08875   0.00011  -0.00081   0.00073  -0.00009   2.08866
   A17        2.09655   0.00001   0.00029   0.00017   0.00046   2.09702
   A18        2.09789  -0.00012   0.00052  -0.00090  -0.00038   2.09751
   A19        1.91526   0.00118   0.00067   0.00394   0.00461   1.91987
   A20        1.91529   0.00118   0.00067   0.00392   0.00459   1.91987
   A21        1.87116  -0.00207  -0.00568  -0.01836  -0.02404   1.84711
    D1        0.00000   0.00000  -0.00008   0.00011   0.00003   0.00002
    D2        3.14154   0.00000   0.00011  -0.00006   0.00005   3.14159
    D3        3.14150   0.00000  -0.00008   0.00020   0.00012  -3.14157
    D4       -0.00014   0.00000   0.00011   0.00003   0.00014  -0.00001
    D5       -0.00008   0.00000  -0.00005   0.00015   0.00010   0.00003
    D6       -3.14159   0.00000   0.00003  -0.00002   0.00000  -3.14158
    D7       -3.14158   0.00000  -0.00005   0.00006   0.00001  -3.14157
    D8        0.00010   0.00000   0.00003  -0.00011  -0.00009   0.00001
    D9        0.00005   0.00000   0.00015  -0.00024  -0.00009  -0.00004
   D10       -3.14159   0.00000   0.00010  -0.00011  -0.00001   3.14159
   D11       -3.14150   0.00000  -0.00004  -0.00007  -0.00011   3.14158
   D12        0.00005   0.00000  -0.00010   0.00007  -0.00003   0.00003
   D13       -0.00001   0.00000  -0.00009   0.00011   0.00002   0.00001
   D14        3.14153   0.00000  -0.00002   0.00009   0.00008  -3.14158
   D15       -3.14156   0.00000  -0.00003  -0.00002  -0.00006   3.14157
   D16       -0.00003   0.00000   0.00003  -0.00003   0.00000  -0.00003
   D17       -1.02576   0.00056   0.00310   0.00883   0.01193  -1.01382
   D18        1.02605  -0.00056  -0.00303  -0.00885  -0.01188   1.01417
   D19        2.11579   0.00056   0.00305   0.00897   0.01201   2.12781
   D20       -2.11558  -0.00056  -0.00308  -0.00872  -0.01180  -2.12738
   D21       -0.00007   0.00000  -0.00004   0.00015   0.00011   0.00004
   D22       -3.14152   0.00000   0.00001  -0.00010  -0.00009   3.14158
   D23        3.14158   0.00000  -0.00011   0.00017   0.00005  -3.14155
   D24        0.00014   0.00000  -0.00006  -0.00009  -0.00015  -0.00001
   D25        0.00012   0.00000   0.00011  -0.00028  -0.00017  -0.00006
   D26       -3.14156   0.00000   0.00003  -0.00011  -0.00007   3.14155
   D27        3.14156   0.00000   0.00006  -0.00003   0.00003   3.14159
   D28       -0.00012   0.00000  -0.00002   0.00015   0.00013   0.00001
         Item               Value     Threshold  Converged?
 Maximum Force            0.002697     0.000015     NO 
 RMS     Force            0.000781     0.000010     NO 
 Maximum Displacement     0.014984     0.000060     NO 
 RMS     Displacement     0.004006     0.000040     NO 
 Predicted change in Energy=-9.993555D-05
 GradGradGradGradGradGradGradGradGradGradGradGradGradGradGradGradGradGrad

                          Input orientation:                          
 ---------------------------------------------------------------------
 Center     Atomic      Atomic             Coordinates (Angstroms)
 Number     Number       Type             X           Y           Z
 ---------------------------------------------------------------------
      1          6           0       -0.551759    1.855198    0.000051
      2          6           0        0.843672    1.849924    0.000595
      3          6           0        1.560762    3.054584    0.000126
      4          6           0        0.857508    4.262396   -0.000947
      5          6           0       -0.539342    4.269676   -0.001528
      6          6           0       -1.247169    3.066961   -0.000998
      7          1           0       -1.095464    0.914301    0.000447
      8          1           0        1.385576    0.906556    0.001417
      9          1           0        1.423856    5.188167   -0.001311
     10          1           0       -1.074064    5.215738   -0.002348
     11          1           0       -2.333528    3.072640   -0.001413
     12          7           0        3.005596    3.106325    0.000658
     13          1           0        3.371802    2.613311    0.814162
     14          1           0        3.372428    2.612584   -0.812123
 ---------------------------------------------------------------------
                    Distance matrix (angstroms):
                    1          2          3          4          5
     1  C    0.000000
     2  C    1.395441   0.000000
     3  C    2.429254   1.401936   0.000000
     4  C    2.789379   2.412512   1.397633   0.000000
     5  C    2.414510   2.787101   2.426292   1.396870   0.000000
     6  C    1.397128   2.419256   2.807959   2.420482   1.395544
     7  H    1.086693   2.153053   3.411209   3.876060   3.401149
     8  H    2.157125   1.087936   2.155161   3.397135   3.875035
     9  H    3.874498   3.388286   2.137971   1.085266   2.167435
    10  H    3.400888   3.873813   3.407771   2.154028   1.086720
    11  H    2.157977   3.404355   3.894332   3.405617   2.156849
    12  N    3.770954   2.500492   1.445760   2.439422   3.730948
    13  H    4.078216   2.763349   2.034021   3.115374   4.325037
    14  H    4.078297   2.763470   2.034022   3.115238   4.324924
                    6          7          8          9         10
     6  C    0.000000
     7  H    2.157999   0.000000
     8  H    3.405687   2.481052   0.000000
     9  H    3.410849   4.961139   4.281783   0.000000
    10  H    2.155739   4.301491   4.961743   2.498073   0.000000
    11  H    1.086373   2.488219   4.303912   4.312005   2.485783
    12  N    4.252948   4.650125   2.731932   2.614568   4.592739
    13  H    4.712238   4.848220   2.742018   3.330071   5.215845
    14  H    4.712225   4.848349   2.742255   3.329861   5.215692
                   11         12         13         14
    11  H    0.000000
    12  N    5.339230   0.000000
    13  H    5.781603   1.019293   0.000000
    14  H    5.781595   1.019293   1.626284   0.000000
 Stoichiometry    C6H7N
 Framework group  C1[X(C6H7N)]
 Deg. of freedom    36
 Full point group                 C1      NOp   1
 Largest Abelian subgroup         C1      NOp   1
 Largest concise Abelian subgroup C1      NOp   1
                         Standard orientation:                         
 ---------------------------------------------------------------------
 Center     Atomic      Atomic             Coordinates (Angstroms)
 Number     Number       Type             X           Y           Z
 ---------------------------------------------------------------------
      1          6           0        1.152484    1.224053   -0.000005
      2          6           0       -0.242600    1.192488   -0.000013
      3          6           0       -0.927640   -0.030683    0.000021
      4          6           0       -0.192746   -1.219509    0.000011
      5          6           0        1.203810   -1.189912   -0.000017
      6          6           0        1.879640    0.031070    0.000008
      7          1           0        1.671160    2.178975   -0.000009
      8          1           0       -0.809219    2.121222   -0.000018
      9          1           0       -0.734457   -2.159908    0.000027
     10          1           0        1.763321   -2.121529   -0.000011
     11          1           0        2.965770    0.054071    0.000024
     12          7           0       -2.370604   -0.120548    0.000019
     13          1           0       -2.750031    0.363149    0.813057
     14          1           0       -2.750009    0.362817   -0.813227
 ---------------------------------------------------------------------
 Rotational constants (GHZ):      5.6015897      2.5456709      1.7665652
 Standard basis: 6-31G(d) (6D, 7F)
 There are   119 symmetry adapted cartesian basis functions of A   symmetry.
 There are   119 symmetry adapted basis functions of A   symmetry.
   119 basis functions,   224 primitive gaussians,   119 cartesian basis functions
    25 alpha electrons       25 beta electrons
       nuclear repulsion energy       270.0409853646 Hartrees.
 NAtoms=   14 NActive=   14 NUniq=   14 SFac= 1.00D+00 NAtFMM=   60 NAOKFM=F Big=F
 Integral buffers will be    131072 words long.
 Raffenetti 2 integral format.
 Two-electron integral symmetry is turned on.
 One-electron integrals computed using PRISM.
 NBasis=   119 RedAO= T EigKep=  4.59D-04  NBF=   119
 NBsUse=   119 1.00D-06 EigRej= -1.00D+00 NBFU=   119
 Initial guess from the checkpoint file:  "aniline.chk"
 B after Tr=     0.000000    0.000000    0.000000
         Rot=    1.000000    0.000002    0.000000    0.000199 Ang=   0.02 deg.
 Keep R1 ints in memory in canonical form, NReq=26496076.
 Requested convergence on RMS density matrix=1.00D-08 within 128 cycles.
 Requested convergence on MAX density matrix=1.00D-06.
 Requested convergence on             energy=1.00D-06.
 No special actions if energy rises.
 SCF Done:  E(RB3LYP) =  -287.592699377     A.U. after    9 cycles
            NFock=  9  Conv=0.75D-08     -V/T= 2.0099
 Calling FoFJK, ICntrl=      2127 FMM=F ISym2X=0 I1Cent= 0 IOpClX= 0 NMat=1 NMatS=1 NMatT=0.
 ***** Axes restored to original set *****
 -------------------------------------------------------------------
 Center     Atomic                   Forces (Hartrees/Bohr)
 Number     Number              X              Y              Z
 -------------------------------------------------------------------
      1        6           0.000142666    0.000446785    0.000000722
      2        6          -0.000319429    0.000466850    0.000003018
      3        6           0.000419454   -0.000418475   -0.000004236
      4        6          -0.000804341   -0.000068458   -0.000001297
      5        6           0.000436436   -0.000170032    0.000004618
      6        6           0.000304693   -0.000195268   -0.000002579
      7        1          -0.000159616   -0.000233601    0.000000196
      8        1           0.000074039   -0.000242237   -0.000000356
      9        1           0.000310700    0.000183227   -0.000000213
     10        1          -0.000078061    0.000176900   -0.000000650
     11        1          -0.000272150   -0.000090871   -0.000000545
     12        7          -0.000195769    0.000360006    0.000002308
     13        1           0.000070535   -0.000108159    0.000072435
     14        1           0.000070842   -0.000106666   -0.000073421
 -------------------------------------------------------------------
 Cartesian Forces:  Max     0.000804341 RMS     0.000243914

 GradGradGradGradGradGradGradGradGradGradGradGradGradGradGradGradGradGrad
 Berny optimization.
 Using GEDIIS/GDIIS optimizer.
 FormGI is forming the generalized inverse of G from B-inverse, IUseBI=4.
 Internal  Forces:  Max     0.000318133 RMS     0.000116946
 Search for a local minimum.
 Step number   3 out of a maximum of   73
 All quantities printed in internal units (Hartrees-Bohrs-Radians)
 Mixed Optimization -- En-DIIS/RFO-DIIS
 Swapping is turned off.
 Update second derivatives using D2CorX and points    1    2    3
 DE= -1.05D-04 DEPred=-9.99D-05 R= 1.05D+00
 TightC=F SS=  1.41D+00  RLast= 4.07D-02 DXNew= 5.8209D-01 1.2203D-01
 Trust test= 1.05D+00 RLast= 4.07D-02 DXMaxT set to 3.46D-01
 ITU=  1  1  0
     Eigenvalues ---    0.00766   0.01719   0.02152   0.02153   0.02154
     Eigenvalues ---    0.02155   0.02155   0.02155   0.02156   0.02157
     Eigenvalues ---    0.05348   0.14552   0.16000   0.16000   0.16000
     Eigenvalues ---    0.16000   0.16014   0.16251   0.21815   0.22025
     Eigenvalues ---    0.22746   0.24204   0.33689   0.33719   0.33725
     Eigenvalues ---    0.33748   0.34425   0.36286   0.42006   0.42159
     Eigenvalues ---    0.45261   0.46426   0.46527   0.46878   0.47688
     Eigenvalues ---    0.48504
 En-DIIS/RFO-DIIS IScMMF=        0 using points:     3    2
 RFO step:  Lambda=-1.61307866D-06.
 DidBck=F Rises=F RFO-DIIS coefs:    1.06421   -0.06421
 Iteration  1 RMS(Cart)=  0.00065039 RMS(Int)=  0.00000033
 Iteration  2 RMS(Cart)=  0.00000036 RMS(Int)=  0.00000006
 Variable       Old X    -DE/DX   Delta X   Delta X   Delta X     New X
                                 (Linear)    (Quad)   (Total)
    R1        2.63700  -0.00010  -0.00017  -0.00009  -0.00026   2.63674
    R2        2.64019  -0.00028   0.00016  -0.00078  -0.00061   2.63957
    R3        2.05355   0.00028  -0.00004   0.00083   0.00079   2.05434
    R4        2.64928  -0.00008   0.00010  -0.00022  -0.00012   2.64916
    R5        2.05590   0.00025   0.00008   0.00063   0.00070   2.05660
    R6        2.64114   0.00019   0.00035   0.00016   0.00051   2.64165
    R7        2.73209  -0.00005  -0.00063   0.00023  -0.00040   2.73169
    R8        2.63970  -0.00027  -0.00005  -0.00055  -0.00060   2.63910
    R9        2.05085   0.00032   0.00000   0.00089   0.00090   2.05175
   R10        2.63720   0.00007  -0.00006   0.00021   0.00015   2.63734
   R11        2.05360   0.00019   0.00002   0.00049   0.00051   2.05412
   R12        2.05295   0.00027  -0.00004   0.00079   0.00075   2.05370
   R13        1.92619   0.00013   0.00035   0.00013   0.00048   1.92667
   R14        1.92619   0.00013   0.00035   0.00014   0.00048   1.92667
    A1        2.09557   0.00006   0.00014   0.00010   0.00024   2.09581
    A2        2.09100  -0.00001  -0.00023   0.00021  -0.00002   2.09098
    A3        2.09662  -0.00005   0.00008  -0.00030  -0.00022   2.09640
    A4        2.10395   0.00009   0.00001   0.00041   0.00043   2.10438
    A5        2.09599  -0.00010   0.00006  -0.00061  -0.00056   2.09543
    A6        2.08325   0.00001  -0.00007   0.00020   0.00013   2.08338
    A7        2.07739  -0.00020  -0.00026  -0.00065  -0.00090   2.07649
    A8        2.14352   0.00030   0.00063   0.00089   0.00152   2.14504
    A9        2.06227  -0.00010  -0.00037  -0.00024  -0.00062   2.06165
   A10        2.10328   0.00008   0.00025   0.00026   0.00051   2.10379
   A11        2.06530  -0.00021  -0.00048  -0.00105  -0.00153   2.06377
   A12        2.11460   0.00013   0.00023   0.00079   0.00102   2.11563
   A13        2.09752   0.00000  -0.00015   0.00015   0.00000   2.09752
   A14        2.09045  -0.00002   0.00003  -0.00016  -0.00013   2.09032
   A15        2.09521   0.00002   0.00012   0.00001   0.00013   2.09534
   A16        2.08866  -0.00004  -0.00001  -0.00027  -0.00028   2.08838
   A17        2.09702  -0.00008   0.00003  -0.00053  -0.00050   2.09652
   A18        2.09751   0.00012  -0.00002   0.00080   0.00078   2.09828
   A19        1.91987   0.00002   0.00030  -0.00028   0.00001   1.91988
   A20        1.91987   0.00002   0.00029  -0.00028   0.00002   1.91989
   A21        1.84711  -0.00006  -0.00154   0.00039  -0.00116   1.84596
    D1        0.00002   0.00000   0.00000  -0.00002  -0.00002   0.00000
    D2        3.14159   0.00000   0.00000   0.00002   0.00002  -3.14158
    D3       -3.14157   0.00000   0.00001  -0.00004  -0.00003   3.14159
    D4       -0.00001   0.00000   0.00001   0.00000   0.00001   0.00000
    D5        0.00003   0.00000   0.00001  -0.00005  -0.00005  -0.00002
    D6       -3.14158   0.00000   0.00000  -0.00001  -0.00001   3.14159
    D7       -3.14157   0.00000   0.00000  -0.00003  -0.00003   3.14158
    D8        0.00001   0.00000  -0.00001   0.00000   0.00000   0.00001
    D9       -0.00004   0.00000  -0.00001   0.00006   0.00006   0.00001
   D10        3.14159   0.00000   0.00000  -0.00001  -0.00001   3.14158
   D11        3.14158   0.00000  -0.00001   0.00002   0.00002  -3.14159
   D12        0.00003   0.00000   0.00000  -0.00005  -0.00005  -0.00002
   D13        0.00001   0.00000   0.00000  -0.00003  -0.00003  -0.00001
   D14       -3.14158   0.00000   0.00000  -0.00003  -0.00003   3.14158
   D15        3.14157   0.00000   0.00000   0.00004   0.00003  -3.14158
   D16       -0.00003   0.00000   0.00000   0.00003   0.00003   0.00001
   D17       -1.01382   0.00003   0.00077   0.00008   0.00085  -1.01298
   D18        1.01417  -0.00002  -0.00076   0.00022  -0.00054   1.01363
   D19        2.12781   0.00003   0.00077   0.00001   0.00078   2.12859
   D20       -2.12738  -0.00002  -0.00076   0.00015  -0.00060  -2.12799
   D21        0.00004   0.00000   0.00001  -0.00004  -0.00004   0.00000
   D22        3.14158   0.00000  -0.00001   0.00003   0.00002  -3.14159
   D23       -3.14155   0.00000   0.00000  -0.00004  -0.00004  -3.14159
   D24       -0.00001   0.00000  -0.00001   0.00003   0.00002   0.00001
   D25       -0.00006   0.00000  -0.00001   0.00008   0.00007   0.00002
   D26        3.14155   0.00000   0.00000   0.00005   0.00004  -3.14159
   D27        3.14159   0.00000   0.00000   0.00001   0.00002  -3.14158
   D28        0.00001   0.00000   0.00001  -0.00002  -0.00001   0.00000
         Item               Value     Threshold  Converged?
 Maximum Force            0.000318     0.000015     NO 
 RMS     Force            0.000117     0.000010     NO 
 Maximum Displacement     0.002124     0.000060     NO 
 RMS     Displacement     0.000650     0.000040     NO 
 Predicted change in Energy=-1.606869D-06
 GradGradGradGradGradGradGradGradGradGradGradGradGradGradGradGradGradGrad

                          Input orientation:                          
 ---------------------------------------------------------------------
 Center     Atomic      Atomic             Coordinates (Angstroms)
 Number     Number       Type             X           Y           Z
 ---------------------------------------------------------------------
      1          6           0       -0.551991    1.855486    0.000066
      2          6           0        0.843301    1.850009    0.000627
      3          6           0        1.561053    3.054205    0.000117
      4          6           0        0.857268    4.262019   -0.000947
      5          6           0       -0.539261    4.269554   -0.001511
      6          6           0       -1.247351    3.066902   -0.001018
      7          1           0       -1.096025    0.914296    0.000465
      8          1           0        1.384729    0.905938    0.001459
      9          1           0        1.424980    5.187511   -0.001317
     10          1           0       -1.073815    5.216023   -0.002343
     11          1           0       -2.334111    3.071942   -0.001459
     12          7           0        3.005624    3.107303    0.000673
     13          1           0        3.372412    2.613865    0.813978
     14          1           0        3.373062    2.613310   -0.812003
 ---------------------------------------------------------------------
                    Distance matrix (angstroms):
                    1          2          3          4          5
     1  C    0.000000
     2  C    1.395303   0.000000
     3  C    2.429379   1.401875   0.000000
     4  C    2.788802   2.412050   1.397901   0.000000
     5  C    2.414102   2.786697   2.426601   1.396550   0.000000
     6  C    1.396802   2.419020   2.808433   2.420274   1.395623
     7  H    1.087111   2.153264   3.411638   3.875900   3.401139
     8  H    2.156971   1.088308   2.155491   3.397278   3.875004
     9  H    3.874378   3.387812   2.137642   1.085740   2.168153
    10  H    3.400811   3.873679   3.408224   2.153883   1.086992
    11  H    2.157712   3.404273   3.895205   3.406052   2.157722
    12  N    3.771429   2.501285   1.445547   2.439017   3.730555
    13  H    4.079035   2.764311   2.034033   3.115519   4.325218
    14  H    4.079190   2.764541   2.034036   3.115328   4.325079
                    6          7          8          9         10
     6  C    0.000000
     7  H    2.157919   0.000000
     8  H    3.405527   2.480768   0.000000
     9  H    3.411500   4.961435   4.281762   0.000000
    10  H    2.156116   4.301785   4.961984   2.498958   0.000000
    11  H    1.086772   2.487628   4.303644   4.313514   2.487053
    12  N    4.253168   4.651109   2.733736   2.612605   4.592226
    13  H    4.712926   4.849460   2.743735   3.328791   5.215989
    14  H    4.712925   4.849690   2.744141   3.328474   5.215782
                   11         12         13         14
    11  H    0.000000
    12  N    5.339853   0.000000
    13  H    5.782662   1.019549   0.000000
    14  H    5.782659   1.019549   1.625982   0.000000
 Stoichiometry    C6H7N
 Framework group  C1[X(C6H7N)]
 Deg. of freedom    36
 Full point group                 C1      NOp   1
 Largest Abelian subgroup         C1      NOp   1
 Largest concise Abelian subgroup C1      NOp   1
                         Standard orientation:                         
 ---------------------------------------------------------------------
 Center     Atomic      Atomic             Coordinates (Angstroms)
 Number     Number       Type             X           Y           Z
 ---------------------------------------------------------------------
      1          6           0        1.153202    1.223319   -0.000004
      2          6           0       -0.241762    1.192579    0.000003
      3          6           0       -0.928017   -0.029841    0.000005
      4          6           0       -0.193120   -1.218981    0.000016
      5          6           0        1.203135   -1.190266    0.000007
      6          6           0        1.879771    0.030359   -0.000014
      7          1           0        1.672624    2.178313   -0.000012
      8          1           0       -0.807511    2.122279   -0.000002
      9          1           0       -0.736619   -2.158896    0.000033
     10          1           0        1.762075   -2.122542    0.000011
     11          1           0        2.966296    0.053528   -0.000024
     12          7           0       -2.370724   -0.120415    0.000026
     13          1           0       -2.750529    0.363865    0.812861
     14          1           0       -2.750524    0.363346   -0.813121
 ---------------------------------------------------------------------
 Rotational constants (GHZ):      5.6030670      2.5453060      1.7665302
 Standard basis: 6-31G(d) (6D, 7F)
 There are   119 symmetry adapted cartesian basis functions of A   symmetry.
 There are   119 symmetry adapted basis functions of A   symmetry.
   119 basis functions,   224 primitive gaussians,   119 cartesian basis functions
    25 alpha electrons       25 beta electrons
       nuclear repulsion energy       270.0401967978 Hartrees.
 NAtoms=   14 NActive=   14 NUniq=   14 SFac= 1.00D+00 NAtFMM=   60 NAOKFM=F Big=F
 Integral buffers will be    131072 words long.
 Raffenetti 2 integral format.
 Two-electron integral symmetry is turned on.
 One-electron integrals computed using PRISM.
 NBasis=   119 RedAO= T EigKep=  4.59D-04  NBF=   119
 NBsUse=   119 1.00D-06 EigRej= -1.00D+00 NBFU=   119
 Initial guess from the checkpoint file:  "aniline.chk"
 B after Tr=     0.000000    0.000000    0.000000
         Rot=    1.000000    0.000003    0.000000    0.000196 Ang=   0.02 deg.
 Keep R1 ints in memory in canonical form, NReq=26496076.
 Requested convergence on RMS density matrix=1.00D-08 within 128 cycles.
 Requested convergence on MAX density matrix=1.00D-06.
 Requested convergence on             energy=1.00D-06.
 No special actions if energy rises.
 SCF Done:  E(RB3LYP) =  -287.592701135     A.U. after    8 cycles
            NFock=  8  Conv=0.56D-08     -V/T= 2.0099
 Calling FoFJK, ICntrl=      2127 FMM=F ISym2X=0 I1Cent= 0 IOpClX= 0 NMat=1 NMatS=1 NMatT=0.
 ***** Axes restored to original set *****
 -------------------------------------------------------------------
 Center     Atomic                   Forces (Hartrees/Bohr)
 Number     Number              X              Y              Z
 -------------------------------------------------------------------
      1        6          -0.000048243    0.000043357   -0.000000291
      2        6           0.000114896    0.000081641    0.000000043
      3        6           0.000000527   -0.000167861    0.000001952
      4        6          -0.000217072    0.000077335   -0.000001474
      5        6           0.000124635    0.000059621   -0.000002105
      6        6          -0.000014545   -0.000058012    0.000001487
      7        1           0.000005021   -0.000003247    0.000000072
      8        1          -0.000014734   -0.000030323    0.000000112
      9        1           0.000026966   -0.000012160    0.000000500
     10        1          -0.000005348    0.000010242    0.000000167
     11        1           0.000004327   -0.000004746    0.000000082
     12        7           0.000072811   -0.000030132    0.000001216
     13        1          -0.000025045    0.000015893   -0.000017184
     14        1          -0.000024197    0.000018392    0.000015423
 -------------------------------------------------------------------
 Cartesian Forces:  Max     0.000217072 RMS     0.000057487

 GradGradGradGradGradGradGradGradGradGradGradGradGradGradGradGradGradGrad
 Berny optimization.
 Using GEDIIS/GDIIS optimizer.
 FormGI is forming the generalized inverse of G from B-inverse, IUseBI=4.
 Internal  Forces:  Max     0.000120144 RMS     0.000028012
 Search for a local minimum.
 Step number   4 out of a maximum of   73
 All quantities printed in internal units (Hartrees-Bohrs-Radians)
 Mixed Optimization -- En-DIIS/RFO-DIIS
 Swapping is turned off.
 Update second derivatives using D2CorX and points    1    2    3    4
 DE= -1.76D-06 DEPred=-1.61D-06 R= 1.09D+00
 TightC=F SS=  1.41D+00  RLast= 4.07D-03 DXNew= 5.8209D-01 1.2212D-02
 Trust test= 1.09D+00 RLast= 4.07D-03 DXMaxT set to 3.46D-01
 ITU=  1  1  1  0
     Eigenvalues ---    0.00765   0.01719   0.02152   0.02153   0.02154
     Eigenvalues ---    0.02155   0.02155   0.02156   0.02156   0.02157
     Eigenvalues ---    0.05356   0.14022   0.15881   0.16000   0.16000
     Eigenvalues ---    0.16000   0.16060   0.16129   0.21116   0.22023
     Eigenvalues ---    0.23365   0.24314   0.33673   0.33719   0.33724
     Eigenvalues ---    0.33812   0.34611   0.35636   0.41606   0.42157
     Eigenvalues ---    0.44410   0.45916   0.46535   0.47125   0.47688
     Eigenvalues ---    0.49390
 En-DIIS/RFO-DIIS IScMMF=        0 using points:     4    3    2
 RFO step:  Lambda=-8.41434212D-08.
 DidBck=F Rises=F RFO-DIIS coefs:    1.08885   -0.09175    0.00290
 Iteration  1 RMS(Cart)=  0.00011903 RMS(Int)=  0.00000002
 Iteration  2 RMS(Cart)=  0.00000002 RMS(Int)=  0.00000001
 Variable       Old X    -DE/DX   Delta X   Delta X   Delta X     New X
                                 (Linear)    (Quad)   (Total)
    R1        2.63674   0.00004  -0.00002   0.00010   0.00008   2.63682
    R2        2.63957  -0.00002  -0.00006   0.00000  -0.00007   2.63951
    R3        2.05434   0.00000   0.00007  -0.00005   0.00002   2.05437
    R4        2.64916  -0.00009  -0.00001  -0.00020  -0.00022   2.64894
    R5        2.05660   0.00002   0.00006   0.00002   0.00008   2.05669
    R6        2.64165   0.00012   0.00003   0.00027   0.00030   2.64195
    R7        2.73169   0.00002  -0.00001   0.00005   0.00004   2.73173
    R8        2.63910  -0.00010  -0.00005  -0.00021  -0.00027   2.63883
    R9        2.05175   0.00000   0.00008  -0.00004   0.00004   2.05179
   R10        2.63734   0.00005   0.00002   0.00010   0.00011   2.63746
   R11        2.05412   0.00001   0.00004   0.00000   0.00005   2.05417
   R12        2.05370   0.00000   0.00007  -0.00006   0.00001   2.05371
   R13        1.92667  -0.00003   0.00003  -0.00007  -0.00004   1.92663
   R14        1.92667  -0.00003   0.00003  -0.00007  -0.00004   1.92663
    A1        2.09581   0.00002   0.00001   0.00011   0.00013   2.09594
    A2        2.09098  -0.00002   0.00001  -0.00012  -0.00011   2.09087
    A3        2.09640   0.00000  -0.00002   0.00001  -0.00001   2.09638
    A4        2.10438  -0.00002   0.00004  -0.00012  -0.00009   2.10429
    A5        2.09543  -0.00002  -0.00005  -0.00010  -0.00015   2.09528
    A6        2.08338   0.00004   0.00001   0.00022   0.00024   2.08362
    A7        2.07649  -0.00001  -0.00007   0.00000  -0.00007   2.07642
    A8        2.14504   0.00000   0.00011  -0.00001   0.00009   2.14514
    A9        2.06165   0.00000  -0.00004   0.00001  -0.00003   2.06163
   A10        2.10379   0.00003   0.00003   0.00014   0.00017   2.10396
   A11        2.06377  -0.00004  -0.00011  -0.00022  -0.00034   2.06343
   A12        2.11563   0.00001   0.00008   0.00008   0.00017   2.11579
   A13        2.09752  -0.00003   0.00001  -0.00014  -0.00013   2.09739
   A14        2.09032   0.00001  -0.00001   0.00008   0.00007   2.09039
   A15        2.09534   0.00001   0.00001   0.00006   0.00006   2.09541
   A16        2.08838   0.00000  -0.00002   0.00001  -0.00001   2.08837
   A17        2.09652  -0.00001  -0.00005  -0.00002  -0.00006   2.09646
   A18        2.09828   0.00001   0.00007   0.00001   0.00008   2.09836
   A19        1.91988  -0.00002  -0.00001  -0.00012  -0.00013   1.91976
   A20        1.91989  -0.00002  -0.00001  -0.00010  -0.00012   1.91977
   A21        1.84596   0.00002  -0.00003   0.00009   0.00006   1.84601
    D1        0.00000   0.00000   0.00000   0.00002   0.00001   0.00002
    D2       -3.14158   0.00000   0.00000   0.00000   0.00000  -3.14158
    D3        3.14159   0.00000   0.00000   0.00002   0.00002  -3.14158
    D4        0.00000   0.00000   0.00000   0.00000   0.00000   0.00000
    D5       -0.00002   0.00000   0.00000   0.00002   0.00001   0.00000
    D6        3.14159   0.00000   0.00000   0.00000   0.00000   3.14159
    D7        3.14158   0.00000   0.00000   0.00002   0.00001  -3.14159
    D8        0.00001   0.00000   0.00000   0.00000   0.00000   0.00000
    D9        0.00001   0.00000   0.00001  -0.00003  -0.00002  -0.00001
   D10        3.14158   0.00000   0.00000   0.00000   0.00000   3.14158
   D11       -3.14159   0.00000   0.00000  -0.00001  -0.00001   3.14159
   D12       -0.00002   0.00000   0.00000   0.00002   0.00001  -0.00001
   D13       -0.00001   0.00000   0.00000   0.00001   0.00001  -0.00001
   D14        3.14158   0.00000   0.00000   0.00001   0.00000   3.14158
   D15       -3.14158   0.00000   0.00000  -0.00002  -0.00002   3.14159
   D16        0.00001   0.00000   0.00000  -0.00002  -0.00002  -0.00001
   D17       -1.01298   0.00000   0.00004   0.00018   0.00022  -1.01276
   D18        1.01363   0.00000  -0.00001   0.00016   0.00015   1.01378
   D19        2.12859   0.00000   0.00003   0.00021   0.00025   2.12883
   D20       -2.12799   0.00000  -0.00002   0.00019   0.00017  -2.12781
   D21        0.00000   0.00000   0.00000   0.00003   0.00002   0.00002
   D22       -3.14159   0.00000   0.00000  -0.00001  -0.00001   3.14159
   D23       -3.14159   0.00000   0.00000   0.00003   0.00003  -3.14157
   D24        0.00001   0.00000   0.00000   0.00000   0.00000   0.00001
   D25        0.00002   0.00000   0.00001  -0.00004  -0.00003  -0.00001
   D26       -3.14159   0.00000   0.00000  -0.00002  -0.00002   3.14158
   D27       -3.14158   0.00000   0.00000  -0.00001   0.00000  -3.14159
   D28        0.00000   0.00000   0.00000   0.00001   0.00001   0.00001
         Item               Value     Threshold  Converged?
 Maximum Force            0.000120     0.000015     NO 
 RMS     Force            0.000028     0.000010     NO 
 Maximum Displacement     0.000390     0.000060     NO 
 RMS     Displacement     0.000119     0.000040     NO 
 Predicted change in Energy=-7.642867D-08
 GradGradGradGradGradGradGradGradGradGradGradGradGradGradGradGradGradGrad

                          Input orientation:                          
 ---------------------------------------------------------------------
 Center     Atomic      Atomic             Coordinates (Angstroms)
 Number     Number       Type             X           Y           Z
 ---------------------------------------------------------------------
      1          6           0       -0.551941    1.855574    0.000081
      2          6           0        0.843395    1.849998    0.000651
      3          6           0        1.561071    3.054105    0.000149
      4          6           0        0.857106    4.261997   -0.000945
      5          6           0       -0.539282    4.269657   -0.001540
      6          6           0       -1.247350    3.066922   -0.001020
      7          1           0       -1.095942    0.914351    0.000489
      8          1           0        1.384631    0.905768    0.001498
      9          1           0        1.425063    5.187361   -0.001310
     10          1           0       -1.073830    5.216158   -0.002389
     11          1           0       -2.334115    3.071831   -0.001469
     12          7           0        3.005660    3.107361    0.000715
     13          1           0        3.372374    2.613762    0.813930
     14          1           0        3.373034    2.613517   -0.812053
 ---------------------------------------------------------------------
                    Distance matrix (angstroms):
                    1          2          3          4          5
     1  C    0.000000
     2  C    1.395347   0.000000
     3  C    2.429257   1.401760   0.000000
     4  C    2.788599   2.412039   1.398060   0.000000
     5  C    2.414116   2.786853   2.426737   1.396409   0.000000
     6  C    1.396768   2.419116   2.808450   2.420111   1.395683
     7  H    1.087124   2.153245   3.411490   3.875711   3.401169
     8  H    2.156953   1.088351   2.155570   3.397435   3.875203
     9  H    3.874190   3.387674   2.137588   1.085760   2.168141
    10  H    3.400867   3.873861   3.408399   2.153820   1.087018
    11  H    2.157644   3.404328   3.895226   3.405934   2.157825
    12  N    3.771405   2.501270   1.445571   2.439154   3.730624
    13  H    4.078902   2.764144   2.033951   3.115650   4.325278
    14  H    4.079150   2.764512   2.033962   3.115330   4.325038
                    6          7          8          9         10
     6  C    0.000000
     7  H    2.157890   0.000000
     8  H    3.405572   2.480589   0.000000
     9  H    3.411459   4.961259   4.281785   0.000000
    10  H    2.156230   4.301865   4.962209   2.499060   0.000000
    11  H    1.086776   2.487528   4.303593   4.313570   2.487259
    12  N    4.253203   4.651068   2.733998   2.612411   4.592307
    13  H    4.712891   4.849282   2.743795   3.328670   5.216088
    14  H    4.712887   4.849653   2.744452   3.328148   5.215736
                   11         12         13         14
    11  H    0.000000
    12  N    5.339894   0.000000
[...]
         Item               Value     Threshold  Converged?
 Maximum Force            0.000002     0.000015     YES
 RMS     Force            0.000001     0.000010     YES
 Maximum Displacement     0.000029     0.000060     YES
 RMS     Displacement     0.000007     0.000040     YES
 Predicted change in Energy=-5.961063D-11
 Optimization completed.
    -- Stationary point found.
                           ----------------------------
                           !   Optimized Parameters   !
                           ! (Angstroms and Degrees)  !
 --------------------------                            --------------------------
 ! Name  Definition              Value          Derivative Info.                !
 --------------------------------------------------------------------------------
 ! R1    R(1,2)                  1.3931         -DE/DX =    0.0                 !
 ! R2    R(1,6)                  1.3965         -DE/DX =    0.0                 !
 ! R3    R(1,7)                  1.0873         -DE/DX =    0.0                 !
 ! R4    R(2,3)                  1.4052         -DE/DX =    0.0                 !
 ! R5    R(2,8)                  1.0882         -DE/DX =    0.0                 !
 ! R6    R(3,4)                  1.4052         -DE/DX =    0.0                 !
 ! R7    R(3,12)                 1.4003         -DE/DX =    0.0                 !
 ! R8    R(4,5)                  1.3931         -DE/DX =    0.0                 !
 ! R9    R(4,9)                  1.0882         -DE/DX =    0.0                 !
 ! R10   R(5,6)                  1.3965         -DE/DX =    0.0                 !
 ! R11   R(5,10)                 1.0873         -DE/DX =    0.0                 !
 ! R12   R(6,11)                 1.086          -DE/DX =    0.0                 !
 ! R13   R(12,13)                1.0128         -DE/DX =    0.0                 !
 ! R14   R(12,14)                1.0128         -DE/DX =    0.0                 !
 ! A1    A(2,1,6)              120.7849         -DE/DX =    0.0                 !
 ! A2    A(2,1,7)              119.177          -DE/DX =    0.0                 !
 ! A3    A(6,1,7)              120.0379         -DE/DX =    0.0                 !
 ! A4    A(1,2,3)              120.4714         -DE/DX =    0.0                 !
 ! A5    A(1,2,8)              120.1116         -DE/DX =    0.0                 !
 ! A6    A(3,2,8)              119.4162         -DE/DX =    0.0                 !
 ! A7    A(2,3,4)              118.5933         -DE/DX =    0.0                 !
 ! A8    A(2,3,12)             120.6734         -DE/DX =    0.0                 !
 ! A9    A(4,3,12)             120.6728         -DE/DX =    0.0                 !
 ! A10   A(3,4,5)              120.4716         -DE/DX =    0.0                 !
 ! A11   A(3,4,9)              119.4157         -DE/DX =    0.0                 !
 ! A12   A(5,4,9)              120.112          -DE/DX =    0.0                 !
 ! A13   A(4,5,6)              120.7848         -DE/DX =    0.0                 !
 ! A14   A(4,5,10)             119.177          -DE/DX =    0.0                 !
 ! A15   A(6,5,10)             120.038          -DE/DX =    0.0                 !
 ! A16   A(1,6,5)              118.894          -DE/DX =    0.0                 !
 ! A17   A(1,6,11)             120.553          -DE/DX =    0.0                 !
 ! A18   A(5,6,11)             120.553          -DE/DX =    0.0                 !
 ! A19   A(3,12,13)            114.5968         -DE/DX =    0.0                 !
 ! A20   A(3,12,14)            114.5971         -DE/DX =    0.0                 !
 ! A21   A(13,12,14)           111.0394         -DE/DX =    0.0                 !
 ! D1    D(6,1,2,3)              0.0548         -DE/DX =    0.0                 !
 ! D2    D(6,1,2,8)            179.7377         -DE/DX =    0.0                 !
 ! D3    D(7,1,2,3)            179.8972         -DE/DX =    0.0                 !
 ! D4    D(7,1,2,8)             -0.4198         -DE/DX =    0.0                 !
 ! D5    D(2,1,6,5)             -0.0558         -DE/DX =    0.0                 !
 ! D6    D(2,1,6,11)           179.9012         -DE/DX =    0.0                 !
 ! D7    D(7,1,6,5)           -179.8969         -DE/DX =    0.0                 !
 ! D8    D(7,1,6,11)             0.0601         -DE/DX =    0.0                 !
 ! D9    D(1,2,3,4)             -0.0518         -DE/DX =    0.0                 !
 ! D10   D(1,2,3,12)           177.136          -DE/DX =    0.0                 !
 ! D11   D(8,2,3,4)           -179.737          -DE/DX =    0.0                 !
 ! D12   D(8,2,3,12)            -2.5492         -DE/DX =    0.0                 !
 ! D13   D(2,3,4,5)              0.052          -DE/DX =    0.0                 !
 ! D14   D(2,3,4,9)            179.7371         -DE/DX =    0.0                 !
 ! D15   D(12,3,4,5)          -177.1358         -DE/DX =    0.0                 !
 ! D16   D(12,3,4,9)             2.5493         -DE/DX =    0.0                 !
 ! D17   D(2,3,12,13)           26.398          -DE/DX =    0.0                 !
 ! D18   D(2,3,12,14)          156.4735         -DE/DX =    0.0                 !
 ! D19   D(4,3,12,13)         -156.4729         -DE/DX =    0.0                 !
 ! D20   D(4,3,12,14)          -26.3975         -DE/DX =    0.0                 !
 ! D21   D(3,4,5,6)             -0.0551         -DE/DX =    0.0                 !
 ! D22   D(3,4,5,10)          -179.8971         -DE/DX =    0.0                 !
 ! D23   D(9,4,5,6)           -179.738          -DE/DX =    0.0                 !
 ! D24   D(9,4,5,10)             0.4199         -DE/DX =    0.0                 !
 ! D25   D(4,5,6,1)              0.056          -DE/DX =    0.0                 !
 ! D26   D(4,5,6,11)          -179.901          -DE/DX =    0.0                 !
 ! D27   D(10,5,6,1)           179.8967         -DE/DX =    0.0                 !
 ! D28   D(10,5,6,11)           -0.0603         -DE/DX =    0.0                 !
 --------------------------------------------------------------------------------
 GradGradGradGradGradGradGradGradGradGradGradGradGradGradGradGradGradGrad

                          Input orientation:                          
 ---------------------------------------------------------------------
 Center     Atomic      Atomic             Coordinates (Angstroms)
 Number     Number       Type             X           Y           Z
 ---------------------------------------------------------------------
      1          6           0       -0.590853    1.849259    0.112498
      2          6           0        0.800424    1.793145    0.157000
      3          6           0        1.564228    2.969378    0.068993
      4          6           0        0.894721    4.197532   -0.065433
      5          6           0       -0.496992    4.242430   -0.108894
      6          6           0       -1.252976    3.071524   -0.021202
      7          1           0       -1.161019    0.926016    0.180694
      8          1           0        1.304945    0.835162    0.265714
      9          1           0        1.472887    5.117093   -0.130416
     10          1           0       -0.993236    5.203984   -0.215065
     11          1           0       -2.337666    3.110745   -0.057091
     12          7           0        2.959952    2.924274    0.173059
     13          1           0        3.375151    2.043188   -0.104689
     14          1           0        3.440308    3.704633   -0.258383
 ---------------------------------------------------------------------
                    Distance matrix (angstroms):
                    1          2          3          4          5
     1  C    0.000000
     2  C    1.393118   0.000000
     3  C    2.429183   1.405228   0.000000
     4  C    2.784416   2.416495   1.405230   0.000000
     5  C    2.405221   2.784418   2.429183   1.393116   0.000000
     6  C    1.396500   2.425378   2.820497   2.425377   1.396504
     7  H    1.087253   2.144698   3.408046   3.871623   3.394612
     8  H    2.155439   1.088159   2.158890   3.403450   3.872567
     9  H    3.872565   3.403446   2.158885   1.088159   2.155440
    10  H    3.394612   3.871625   3.408046   2.144696   1.087253
    11  H    2.161357   3.410207   3.906489   3.410206   2.161360
    12  N    3.710463   2.437883   1.400325   2.437877   3.710457
    13  H    3.976678   2.600043   2.041431   3.285616   4.453109
    14  H    4.453114   3.285624   2.041434   2.600037   3.976670
                    6          7          8          9         10
     6  C    0.000000
     7  H    2.156947   0.000000
     8  H    3.409779   2.469101   0.000000
     9  H    3.409782   4.959776   4.303493   0.000000
    10  H    2.156951   4.299511   4.959778   2.469105   0.000000
    11  H    1.085992   2.492806   4.307098   4.307102   2.492809
    12  N    4.219974   4.579901   2.666837   2.666817   4.579893
    13  H    4.741731   4.680423   2.425341   3.614991   5.393109
    14  H    4.741730   5.393118   3.615013   2.425317   4.680411
                   11         12         13         14
    11  H    0.000000
    12  N    5.305893   0.000000
    13  H    5.811904   1.012841   0.000000
    14  H    5.811903   1.012840   1.669811   0.000000
 Stoichiometry    C6H7N
 Framework group  C1[X(C6H7N)]
 Deg. of freedom    36
 Full point group                 C1      NOp   1
 Largest Abelian subgroup         C1      NOp   1
 Largest concise Abelian subgroup C1      NOp   1
                         Standard orientation:                         
 ---------------------------------------------------------------------
 Center     Atomic      Atomic             Coordinates (Angstroms)
 Number     Number       Type             X           Y           Z
 ---------------------------------------------------------------------
      1          6           0        1.171823    1.202607   -0.003378
      2          6           0       -0.221258    1.208250    0.005175
      3          6           0       -0.938744    0.000005    0.010139
      4          6           0       -0.221264   -1.208245    0.005174
      5          6           0        1.171814   -1.202613   -0.003376
      6          6           0        1.881692   -0.000004   -0.008330
      7          1           0        1.705685    2.149751   -0.008797
      8          1           0       -0.763316    2.151753    0.013278
      9          1           0       -0.763336   -2.151740    0.013273
     10          1           0        1.705670   -2.149760   -0.008797
     11          1           0        2.967653   -0.000007   -0.016608
     12          7           0       -2.337380    0.000001    0.078910
     13          1           0       -2.777535    0.834905   -0.288575
     14          1           0       -2.777536   -0.834906   -0.288567
 ---------------------------------------------------------------------
 Rotational constants (GHZ):      5.6125998      2.5862069      1.7734497

 **********************************************************************

            Population analysis using the SCF density.

 **********************************************************************

 Orbital symmetries:
       Occupied  (A) (A) (A) (A) (A) (A) (A) (A) (A) (A) (A) (A)
                 (A) (A) (A) (A) (A) (A) (A) (A) (A) (A) (A) (A)
                 (A)
       Virtual   (A) (A) (A) (A) (A) (A) (A) (A) (A) (A) (A) (A)
                 (A) (A) (A) (A) (A) (A) (A) (A) (A) (A) (A) (A)
                 (A) (A) (A) (A) (A) (A) (A) (A) (A) (A) (A) (A)
                 (A) (A) (A) (A) (A) (A) (A) (A) (A) (A) (A) (A)
                 (A) (A) (A) (A) (A) (A) (A) (A) (A) (A) (A) (A)
                 (A) (A) (A) (A) (A) (A) (A) (A) (A) (A) (A) (A)
                 (A) (A) (A) (A) (A) (A) (A) (A) (A) (A) (A) (A)
                 (A) (A) (A) (A) (A) (A) (A) (A) (A) (A)
 The electronic state is 1-A.
 Alpha  occ. eigenvalues --  -14.33775 -10.22229 -10.18140 -10.18138 -10.17678
 Alpha  occ. eigenvalues --  -10.17678 -10.17181  -0.91310  -0.82662  -0.73495
 Alpha  occ. eigenvalues --   -0.71675  -0.60356  -0.58961  -0.51612  -0.50195
 Alpha  occ. eigenvalues --   -0.47125  -0.42452  -0.41815  -0.41007  -0.37328
 Alpha  occ. eigenvalues --   -0.34965  -0.33358  -0.30191  -0.24060  -0.19816
 Alpha virt. eigenvalues --    0.00920   0.02380   0.08201   0.10329   0.12425
 Alpha virt. eigenvalues --    0.16371   0.16631   0.17650   0.19525   0.19571
 Alpha virt. eigenvalues --    0.26611   0.31295   0.32618   0.35003   0.35652
 Alpha virt. eigenvalues --    0.47708   0.53282   0.54219   0.55848   0.57161
 Alpha virt. eigenvalues --    0.59715   0.60593   0.60815   0.60830   0.62230
 Alpha virt. eigenvalues --    0.62753   0.63844   0.67140   0.68024   0.71056
 Alpha virt. eigenvalues --    0.76580   0.80317   0.84270   0.84287   0.85814
 Alpha virt. eigenvalues --    0.86745   0.89018   0.90578   0.93230   0.94905
 Alpha virt. eigenvalues --    0.97948   0.98701   1.02999   1.04454   1.11447
 Alpha virt. eigenvalues --    1.13495   1.18672   1.20425   1.27161   1.32612
 Alpha virt. eigenvalues --    1.38875   1.45034   1.45236   1.49151   1.50251
 Alpha virt. eigenvalues --    1.52478   1.54254   1.76477   1.78949   1.84426
 Alpha virt. eigenvalues --    1.89014   1.89227   1.94585   1.96433   1.98364
 Alpha virt. eigenvalues --    2.06619   2.09634   2.09653   2.14901   2.18735
 Alpha virt. eigenvalues --    2.19748   2.25792   2.28346   2.32227   2.44914
 Alpha virt. eigenvalues --    2.46378   2.48836   2.58301   2.59240   2.67604
 Alpha virt. eigenvalues --    2.72852   2.74130   2.74227   2.82754   2.88706
 Alpha virt. eigenvalues --    3.08648   3.42054   3.83609   4.09410   4.12512
 Alpha virt. eigenvalues --    4.13769   4.33769   4.36888   4.69945
          Condensed to atoms (all electrons):
               1          2          3          4          5          6
     1  C    4.834068   0.546195  -0.009848  -0.043089  -0.024092   0.550910
     2  C    0.546195   4.978127   0.542007  -0.054578  -0.043089  -0.042640
     3  C   -0.009848   0.542007   4.489204   0.542005  -0.009848  -0.037027
     4  C   -0.043089  -0.054578   0.542005   4.978123   0.546197  -0.042640
     5  C   -0.024092  -0.043089  -0.009848   0.546197   4.834069   0.550907
     6  C    0.550910  -0.042640  -0.037027  -0.042640   0.550907   4.875935
     7  H    0.355180  -0.040709   0.003769   0.000908   0.004770  -0.043020
     8  H   -0.040985   0.348629  -0.046511   0.005905   0.000380   0.004882
     9  H    0.000380   0.005905  -0.046512   0.348628  -0.040985   0.004882
    10  H    0.004769   0.000908   0.003769  -0.040709   0.355180  -0.043020
    11  H   -0.043372   0.004773   0.000760   0.004772  -0.043372   0.359081
    12  N    0.004778  -0.069675   0.306823  -0.069675   0.004778   0.000601
    13  H   -0.000054  -0.008866  -0.022718   0.005521  -0.000158   0.000004
    14  H   -0.000158   0.005521  -0.022718  -0.008867  -0.000054   0.000004
               7          8          9         10         11         12
     1  C    0.355180  -0.040985   0.000380   0.004769  -0.043372   0.004778
     2  C   -0.040709   0.348629   0.005905   0.000908   0.004773  -0.069675
     3  C    0.003769  -0.046511  -0.046512   0.003769   0.000760   0.306823
     4  C    0.000908   0.005905   0.348628  -0.040709   0.004772  -0.069675
     5  C    0.004770   0.000380  -0.040985   0.355180  -0.043372   0.004778
     6  C   -0.043020   0.004882   0.004882  -0.043020   0.359081   0.000601
     7  H    0.607077  -0.006303   0.000016  -0.000204  -0.005595  -0.000122
     8  H   -0.006303   0.622631  -0.000185   0.000016  -0.000179  -0.008111
     9  H    0.000016  -0.000185   0.622632  -0.006303  -0.000179  -0.008111
    10  H   -0.000204   0.000016  -0.006303   0.607077  -0.005595  -0.000122
    11  H   -0.005595  -0.000179  -0.000179  -0.005595   0.608814   0.000004
    12  N   -0.000122  -0.008111  -0.008111  -0.000122   0.000004   7.002127
    13  H   -0.000009   0.005849  -0.000119   0.000004   0.000000   0.311445
    14  H    0.000004  -0.000119   0.005849  -0.000009   0.000000   0.311445
              13         14
     1  C   -0.000054  -0.000158
     2  C   -0.008866   0.005521
     3  C   -0.022718  -0.022718
     4  C    0.005521  -0.008867
     5  C   -0.000158  -0.000054
     6  C    0.000004   0.000004
     7  H   -0.000009   0.000004
     8  H    0.005849  -0.000119
     9  H   -0.000119   0.005849
    10  H    0.000004  -0.000009
    11  H    0.000000   0.000000
    12  N    0.311445   0.311445
    13  H    0.422615  -0.031414
    14  H   -0.031414   0.422615
 Mulliken charges:
               1
     1  C   -0.134681
     2  C   -0.172505
     3  C    0.306846
     4  C   -0.172504
     5  C   -0.134682
     6  C   -0.138860
     7  H    0.124239
     8  H    0.114102
     9  H    0.114102
    10  H    0.124239
    11  H    0.120088
    12  N   -0.786185
    13  H    0.317901
    14  H    0.317901
 Sum of Mulliken charges =   0.00000
 Mulliken charges with hydrogens summed into heavy atoms:
               1
     1  C   -0.010442
     2  C   -0.058403
     3  C    0.306846
     4  C   -0.058402
     5  C   -0.010443
     6  C   -0.018772
    12  N   -0.150383
 Electronic spatial extent (au):  <R**2>=            686.3010
 Charge=              0.0000 electrons
 Dipole moment (field-independent basis, Debye):
    X=             -1.2609    Y=              0.0000    Z=             -1.1594  Tot=              1.7130
 Quadrupole moment (field-independent basis, Debye-Ang):
   XX=            -34.3354   YY=            -36.3040   ZZ=            -45.3079
   XY=              0.0000   XZ=              3.5054   YZ=              0.0000
 Traceless Quadrupole moment (field-independent basis, Debye-Ang):
   XX=              4.3137   YY=              2.3451   ZZ=             -6.6587
   XY=              0.0000   XZ=              3.5054   YZ=              0.0000
 Octapole moment (field-independent basis, Debye-Ang**2):
  XXX=            -16.3633  YYY=              0.0000  ZZZ=             -0.9638  XYY=             -5.2942
  XXY=             -0.0001  XXZ=            -10.3277  XZZ=             -2.5584  YZZ=              0.0000
  YYZ=             -0.6874  XYZ=              0.0000
 Hexadecapole moment (field-independent basis, Debye-Ang**3):
 XXXX=           -491.7659 YYYY=           -281.6697 ZZZZ=            -47.1168 XXXY=              0.0003
 XXXZ=             29.9695 YYYX=              0.0000 YYYZ=              0.0000 ZZZX=              3.0591
 ZZZY=              0.0000 XXYY=           -122.0819 XXZZ=           -111.8508 YYZZ=            -63.4581
 XXYZ=             -0.0001 YYXZ=              2.2774 ZZXY=              0.0000
 N-N= 2.709449929147D+02 E-N=-1.208648257207D+03  KE= 2.847795928755D+02
 1\1\GINC-TREASON-MS-7982\FOpt\RB3LYP\6-31G(d)\C6H7N1\TREASON\10-Jan-20
 20\0\\# b3lyp/6-31g* opt=tight\\Title Card Required\\0,1\C,-0.59085257
 67,1.8492594147,0.11249849\C,0.8004236804,1.7931445923,0.1570003594\C,
 1.5642275433,2.9693781846,0.0689932398\C,0.8947213724,4.1975316852,-0.
 0654331144\C,-0.4969920435,4.2424295019,-0.1088938128\C,-1.2529761721,
 3.0715236442,-0.0212015682\H,-1.1610188424,0.9260156634,0.1806938504\H
 ,1.3049446828,0.8351620763,0.2657138498\H,1.4728872107,5.1170925842,-0
 .1304156431\H,-0.9932364171,5.2039843996,-0.215065016\H,-2.3376662521,
 3.1107449584,-0.0570914452\N,2.9599519224,2.9242735514,0.1730589838\H,
 3.375151346,2.0431878802,-0.1046887555\H,3.4403083558,3.7046333037,-0.
 2583829479\\Version=EM64L-G09RevD.01\State=1-A\HF=-287.6017607\RMSD=4.
 943e-09\RMSF=1.108e-06\Dipole=0.5056082,-0.060664,-0.4414439\Quadrupol
 e=3.315213,1.7054994,-5.0207123,-0.2842664,-2.4067307,-0.5313756\PG=C0
 1 [X(C6H7N1)]\\@


 SOME PEOPLE TRY TO PULL THE WOOL OVER YOUR EYES
 USING THE WRONG YARN.
 Job cpu time:       0 days  0 hours  8 minutes 38.5 seconds.
 File lengths (MBytes):  RWF=      9 Int=      0 D2E=      0 Chk=      2 Scr=      1
 Normal termination of Gaussian 09 at Fri Jan 10 20:19:55 2020.
