 Entering Gaussian System, Link 0=g09
 Initial command:
 /usr/local/gaussian/g09/l1.exe "/scratch/treason/aniline_opt.com/Gau-15136.inp" -scrdir="/scratch/treason/aniline_opt.com/"
 Entering Link 1 = /usr/local/gaussian/g09/l1.exe PID=     15138.
  
 Copyright (c) 1988,1990,1992,1993,1995,1998,2003,2009,2013,
            Gaussian, Inc.  All Rights Reserved.
  
 This is part of the Gaussian(R) 09 program.  It is based on
 the Gaussian(R) 03 system (copyright 2003, Gaussian, Inc.),
 the Gaussian(R) 98 system (copyright 1998, Gaussian, Inc.),
 the Gaussian(R) 94 system (copyright 1995, Gaussian, Inc.),
 the Gaussian 92(TM) system (copyright 1992, Gaussian, Inc.),
 the Gaussian 90(TM) system (copyright 1990, Gaussian, Inc.),
 the Gaussian 88(TM) system (copyright 1988, Gaussian, Inc.),
 the Gaussian 86(TM) system (copyright 1986, Carnegie Mellon
 University), and the Gaussian 82(TM) system (copyright 1983,
 Carnegie Mellon University). Gaussian is a federally registered
 trademark of Gaussian, Inc.
  
 This software contains proprietary and confidential information,
 including trade secrets, belonging to Gaussian, Inc.
  
 This software is provided under written license and may be
 used, copied, transmitted, or stored only in accord with that
 written license.
  
 The following legend is applicable only to US Government
 contracts under FAR:
  
                    RESTRICTED RIGHTS LEGEND
  
 Use, reproduction and disclosure by the US Government is
 subject to restrictions as set forth in subparagraphs (a)
 and (c) of the Commercial Computer Software - Restricted
 Rights clause in FAR 52.227-19.
  
 Gaussian, Inc.
 340 Quinnipiac St., Bldg. 40, Wallingford CT 06492
  
  
 ---------------------------------------------------------------
 Warning -- This program may not be used in any manner that
 competes with the business of Gaussian, Inc. or will provide
 assistance to any competitor of Gaussian, Inc.  The licensee
 of this program is prohibited from giving any competitor of
 Gaussian, Inc. access to this program.  By using this program,
 the user acknowledges that Gaussian, Inc. is engaged in the
 business of creating and licensing software in the field of
 computational chemistry and represents and warrants to the
 licensee that it is not a competitor of Gaussian, Inc. and that
 it will not use this program in any manner prohibited above.
 ---------------------------------------------------------------
  

 Cite this work as:
 Gaussian 09, Revision D.01,
 M. J. Frisch, G. W. Trucks, H. B. Schlegel, G. E. Scuseria, 
 M. A. Robb, J. R. Cheeseman, G. Scalmani, V. Barone, B. Mennucci, 
 G. A. Petersson, H. Nakatsuji, M. Caricato, X. Li, H. P. Hratchian, 
 A. F. Izmaylov, J. Bloino, G. Zheng, J. L. Sonnenberg, M. Hada, 
 M. Ehara, K. Toyota, R. Fukuda, J. Hasegawa, M. Ishida, T. Nakajima, 
 Y. Honda, O. Kitao, H. Nakai, T. Vreven, J. A. Montgomery, Jr., 
 J. E. Peralta, F. Ogliaro, M. Bearpark, J. J. Heyd, E. Brothers, 
 K. N. Kudin, V. N. Staroverov, T. Keith, R. Kobayashi, J. Normand, 
 K. Raghavachari, A. Rendell, J. C. Burant, S. S. Iyengar, J. Tomasi, 
 M. Cossi, N. Rega, J. M. Millam, M. Klene, J. E. Knox, J. B. Cross, 
 V. Bakken, C. Adamo, J. Jaramillo, R. Gomperts, R. E. Stratmann, 
 O. Yazyev, A. J. Austin, R. Cammi, C. Pomelli, J. W. Ochterski, 
 R. L. Martin, K. Morokuma, V. G. Zakrzewski, G. A. Voth, 
 P. Salvador, J. J. Dannenberg, S. Dapprich, A. D. Daniels, 
 O. Farkas, J. B. Foresman, J. V. Ortiz, J. Cioslowski, 
 and D. J. Fox, Gaussian, Inc., Wallingford CT, 2013.
 
 ******************************************
 Gaussian 09:  EM64L-G09RevD.01 24-Apr-2013
                11-Jan-2020 
 ******************************************
 %chk=aniline_opt.chk
 --------------------------------------------------------
 # HF/6-31G* SCF=Tight Pop=MK IOp(6/33=2,6/41=10,6/42=17)
 --------------------------------------------------------
 1/38=1/1;
 2/12=2,17=6,18=5,40=1/2;
 3/5=1,6=6,7=1,11=9,16=1,25=1,30=1/1,2,3;
 4//1;
 5/5=2,32=2,38=5/2;
 6/7=2,8=2,9=2,10=2,15=8,20=1,28=1,33=2,41=10,42=17/1,2;
 99/5=1,9=1/99;
 -------------------
 Title Card Required
 -------------------
 Symbolic Z-matrix:
 Charge =  0 Multiplicity = 1
 C                     1.17182   1.20261  -0.00338 
 C                    -0.22126   1.20825   0.00518 
 C                    -0.93874   0.00001   0.01014 
 C                    -0.22126  -1.20825   0.00517 
 C                     1.17181  -1.20261  -0.00338 
 C                     1.88169  0.        -0.00833 
 H                     1.70569   2.14975  -0.0088 
 H                    -0.76332   2.15175   0.01328 
 H                    -0.76334  -2.15174   0.01327 
 H                     1.70567  -2.14976  -0.0088 
 H                     2.96765  -0.00001  -0.01661 
 N                    -2.33738   0.        0.07891 
 H                    -2.77754   0.83491  -0.28858 
 H                    -2.77754  -0.83491  -0.28857 
 
                          Input orientation:                          
 ---------------------------------------------------------------------
 Center     Atomic      Atomic             Coordinates (Angstroms)
 Number     Number       Type             X           Y           Z
 ---------------------------------------------------------------------
      1          6           0        1.171823    1.202607   -0.003378
      2          6           0       -0.221258    1.208250    0.005175
      3          6           0       -0.938744    0.000005    0.010139
      4          6           0       -0.221264   -1.208245    0.005174
      5          6           0        1.171814   -1.202613   -0.003376
      6          6           0        1.881692   -0.000004   -0.008330
      7          1           0        1.705685    2.149751   -0.008797
      8          1           0       -0.763316    2.151753    0.013278
      9          1           0       -0.763336   -2.151740    0.013273
     10          1           0        1.705670   -2.149760   -0.008797
     11          1           0        2.967653   -0.000007   -0.016608
     12          7           0       -2.337380    0.000001    0.078910
     13          1           0       -2.777535    0.834905   -0.288575
     14          1           0       -2.777536   -0.834906   -0.288567
 ---------------------------------------------------------------------
                    Distance matrix (angstroms):
                    1          2          3          4          5
     1  C    0.000000
     2  C    1.393119   0.000000
     3  C    2.429182   1.405228   0.000000
     4  C    2.784416   2.416495   1.405230   0.000000
     5  C    2.405220   2.784418   2.429183   1.393116   0.000000
     6  C    1.396500   2.425378   2.820496   2.425377   1.396503
     7  H    1.087253   2.144698   3.408045   3.871623   3.394612
     8  H    2.155439   1.088159   2.158890   3.403450   3.872567
     9  H    3.872565   3.403446   2.158885   1.088159   2.155441
    10  H    3.394611   3.871625   3.408045   2.144696   1.087253
    11  H    2.161356   3.410207   3.906489   3.410206   2.161359
    12  N    3.710463   2.437883   1.400326   2.437877   3.710457
    13  H    3.976678   2.600044   2.041431   3.285616   4.453109
    14  H    4.453114   3.285624   2.041435   2.600037   3.976670
                    6          7          8          9         10
     6  C    0.000000
     7  H    2.156948   0.000000
     8  H    3.409779   2.469100   0.000000
     9  H    3.409781   4.959776   4.303493   0.000000
    10  H    2.156950   4.299511   4.959778   2.469105   0.000000
    11  H    1.085993   2.492806   4.307098   4.307102   2.492810
    12  N    4.219974   4.579901   2.666837   2.666817   4.579893
    13  H    4.741730   4.680423   2.425342   3.614991   5.393109
    14  H    4.741730   5.393118   3.615014   2.425317   4.680411
                   11         12         13         14
    11  H    0.000000
    12  N    5.305893   0.000000
    13  H    5.811904   1.012841   0.000000
    14  H    5.811903   1.012841   1.669811   0.000000
 Stoichiometry    C6H7N
 Framework group  C1[X(C6H7N)]
 Deg. of freedom    36
 Full point group                 C1      NOp   1
 Largest Abelian subgroup         C1      NOp   1
 Largest concise Abelian subgroup C1      NOp   1
                         Standard orientation:                         
 ---------------------------------------------------------------------
 Center     Atomic      Atomic             Coordinates (Angstroms)
 Number     Number       Type             X           Y           Z
 ---------------------------------------------------------------------
      1          6           0       -1.171823    1.202607    0.003378
      2          6           0        0.221258    1.208250   -0.005175
      3          6           0        0.938744    0.000005   -0.010139
      4          6           0        0.221264   -1.208245   -0.005174
      5          6           0       -1.171814   -1.202613    0.003376
      6          6           0       -1.881692   -0.000004    0.008330
      7          1           0       -1.705685    2.149751    0.008797
      8          1           0        0.763316    2.151753   -0.013278
      9          1           0        0.763336   -2.151740   -0.013273
     10          1           0       -1.705670   -2.149760    0.008797
     11          1           0       -2.967653   -0.000007    0.016608
     12          7           0        2.337380    0.000001   -0.078910
     13          1           0        2.777535    0.834905    0.288575
     14          1           0        2.777536   -0.834906    0.288567
 ---------------------------------------------------------------------
 Rotational constants (GHZ):      5.6126005      2.5862070      1.7734498
 Standard basis: 6-31G(d) (6D, 7F)
 There are   119 symmetry adapted cartesian basis functions of A   symmetry.
 There are   119 symmetry adapted basis functions of A   symmetry.
   119 basis functions,   224 primitive gaussians,   119 cartesian basis functions
    25 alpha electrons       25 beta electrons
       nuclear repulsion energy       270.9450020640 Hartrees.
 NAtoms=   14 NActive=   14 NUniq=   14 SFac= 1.00D+00 NAtFMM=   60 NAOKFM=F Big=F
 Integral buffers will be    131072 words long.
 Raffenetti 1 integral format.
 Two-electron integral symmetry is turned on.
 One-electron integrals computed using PRISM.
 NBasis=   119 RedAO= T EigKep=  4.67D-04  NBF=   119
 NBsUse=   119 1.00D-06 EigRej= -1.00D+00 NBFU=   119
 ExpMin= 1.61D-01 ExpMax= 4.17D+03 ExpMxC= 6.27D+02 IAcc=1 IRadAn=         1 AccDes= 0.00D+00
 Harris functional with IExCor=  205 and IRadAn=       1 diagonalized for initial guess.
 HarFok:  IExCor=  205 AccDes= 0.00D+00 IRadAn=         1 IDoV= 1 UseB2=F ITyADJ=14
 ICtDFT=  3500011 ScaDFX=  1.000000  1.000000  1.000000  1.000000
 FoFCou: FMM=F IPFlag=           0 FMFlag=      100000 FMFlg1=           0
         NFxFlg=           0 DoJE=T BraDBF=F KetDBF=T FulRan=T
         wScrn=  0.000000 ICntrl=     500 IOpCl=  0 I1Cent=   200000004 NGrid=           0
         NMat0=    1 NMatS0=      1 NMatT0=    0 NMatD0=    1 NMtDS0=    0 NMtDT0=    0
 Petite list used in FoFCou.
 Keep R1 ints in memory in canonical form, NReq=26445727.
 Requested convergence on RMS density matrix=1.00D-08 within 128 cycles.
 Requested convergence on MAX density matrix=1.00D-06.
 Requested convergence on             energy=1.00D-06.
 No special actions if energy rises.
 SCF Done:  E(RHF) =  -285.729104769     A.U. after   14 cycles
            NFock= 14  Conv=0.33D-08     -V/T= 2.0022

 **********************************************************************

            Population analysis using the SCF density.

 **********************************************************************

 Orbital symmetries:
 BldTbl:  Degeneracy threshold= 1.00D-02
       Occupied  (A) (A) (A) (A) (A) (A) (A) (A) (A) (A) (A) (A)
                 (A) (A) (A) (A) (A) (A) (A) (A) (A) (A) (A) (A)
                 (A)
       Virtual   (A) (A) (A) (A) (A) (A) (A) (A) (A) (A) (A) (A)
                 (A) (A) (A) (A) (A) (A) (A) (A) (A) (A) (A) (A)
                 (A) (A) (A) (A) (A) (A) (A) (A) (A) (A) (A) (A)
                 (A) (A) (A) (A) (A) (A) (A) (A) (A) (A) (A) (A)
                 (A) (A) (A) (A) (A) (A) (A) (A) (A) (A) (A) (A)
                 (A) (A) (A) (A) (A) (A) (A) (A) (A) (A) (A) (A)
                 (A) (A) (A) (A) (A) (A) (A) (A) (A) (A) (A) (A)
                 (A) (A) (A) (A) (A) (A) (A) (A) (A) (A)
 The electronic state is 1-A.
 Alpha  occ. eigenvalues --  -15.56550 -11.27580 -11.23326 -11.23323 -11.22199
 Alpha  occ. eigenvalues --  -11.22197 -11.21776  -1.21677  -1.11848  -1.00477
 Alpha  occ. eigenvalues --   -0.97857  -0.82427  -0.80574  -0.69745  -0.67783
 Alpha  occ. eigenvalues --   -0.65034  -0.59182  -0.58511  -0.57493  -0.52625
 Alpha  occ. eigenvalues --   -0.50090  -0.48239  -0.44087  -0.32941  -0.28734
 Alpha virt. eigenvalues --    0.14832   0.16587   0.22620   0.24686   0.27204
 Alpha virt. eigenvalues --    0.31330   0.31568   0.33979   0.34883   0.37703
 Alpha virt. eigenvalues --    0.44364   0.48246   0.50444   0.53234   0.54934
 Alpha virt. eigenvalues --    0.66401   0.74179   0.75350   0.76102   0.79121
 Alpha virt. eigenvalues --    0.81488   0.83658   0.83834   0.84008   0.84739
 Alpha virt. eigenvalues --    0.84829   0.86859   0.91572   0.92584   0.97413
 Alpha virt. eigenvalues --    1.01307   1.05110   1.10910   1.11235   1.12229
 Alpha virt. eigenvalues --    1.12310   1.18023   1.18461   1.19078   1.21530
 Alpha virt. eigenvalues --    1.22002   1.23617   1.27050   1.30264   1.34668
 Alpha virt. eigenvalues --    1.37002   1.44133   1.45328   1.52478   1.57993
 Alpha virt. eigenvalues --    1.64799   1.70763   1.72217   1.76752   1.77904
 Alpha virt. eigenvalues --    1.80159   1.80215   2.05206   2.08740   2.13914
 Alpha virt. eigenvalues --    2.17355   2.19570   2.25008   2.28219   2.31113
 Alpha virt. eigenvalues --    2.38892   2.41082   2.41922   2.46227   2.50828
 Alpha virt. eigenvalues --    2.51480   2.57773   2.60916   2.64724   2.79418
 Alpha virt. eigenvalues --    2.80181   2.82134   2.91510   2.93005   3.01782
 Alpha virt. eigenvalues --    3.08025   3.09467   3.09921   3.19087   3.23247
 Alpha virt. eigenvalues --    3.46139   3.79625   4.26358   4.51787   4.54771
 Alpha virt. eigenvalues --    4.56024   4.76042   4.79071   5.12589
          Condensed to atoms (all electrons):
               1          2          3          4          5          6
     1  C    4.855103   0.552280  -0.035050  -0.033868  -0.043364   0.553577
     2  C    0.552280   4.976950   0.567106  -0.043592  -0.033868  -0.052407
     3  C   -0.035050   0.567106   4.489686   0.567103  -0.035050  -0.027622
     4  C   -0.033868  -0.043592   0.567103   4.976949   0.552283  -0.052407
     5  C   -0.043364  -0.033868  -0.035050   0.552283   4.855102   0.553574
     6  C    0.553577  -0.052407  -0.027622  -0.052407   0.553574   4.930196
     7  H    0.380760  -0.030174   0.001714   0.000320   0.002539  -0.029228
     8  H   -0.025888   0.378623  -0.036118   0.002739   0.000139   0.002368
     9  H    0.000139   0.002739  -0.036119   0.378623  -0.025887   0.002368
    10  H    0.002539   0.000320   0.001714  -0.030174   0.380760  -0.029228
    11  H   -0.030082   0.002385   0.000341   0.002385  -0.030081   0.382952
    12  N    0.002472  -0.063377   0.297947  -0.063377   0.002472   0.000329
    13  H    0.000059  -0.004185  -0.030203   0.003672  -0.000095   0.000005
    14  H   -0.000095   0.003672  -0.030203  -0.004185   0.000059   0.000005
               7          8          9         10         11         12
     1  C    0.380760  -0.025888   0.000139   0.002539  -0.030082   0.002472
     2  C   -0.030174   0.378623   0.002739   0.000320   0.002385  -0.063377
     3  C    0.001714  -0.036118  -0.036119   0.001714   0.000341   0.297947
     4  C    0.000320   0.002739   0.378623  -0.030174   0.002385  -0.063377
     5  C    0.002539   0.000139  -0.025887   0.380760  -0.030081   0.002472
     6  C   -0.029228   0.002368   0.002368  -0.029228   0.382952   0.000329
     7  H    0.478292  -0.001772   0.000010  -0.000112  -0.001420  -0.000075
     8  H   -0.001772   0.487875  -0.000113   0.000010  -0.000106  -0.002258
     9  H    0.000010  -0.000113   0.487876  -0.001772  -0.000106  -0.002258
    10  H   -0.000112   0.000010  -0.001772   0.478292  -0.001420  -0.000075
    11  H   -0.001420  -0.000106  -0.000106  -0.001420   0.480710   0.000003
    12  N   -0.000075  -0.002258  -0.002258  -0.000075   0.000003   7.059662
    13  H   -0.000005   0.003064  -0.000074   0.000002   0.000000   0.332188
    14  H    0.000002  -0.000074   0.003065  -0.000005   0.000000   0.332188
              13         14
     1  C    0.000059  -0.000095
     2  C   -0.004185   0.003672
     3  C   -0.030203  -0.030203
     4  C    0.003672  -0.004185
     5  C   -0.000095   0.000059
     6  C    0.000005   0.000005
     7  H   -0.000005   0.000002
     8  H    0.003064  -0.000074
     9  H   -0.000074   0.003065
    10  H    0.000002  -0.000005
    11  H    0.000000   0.000000
    12  N    0.332188   0.332188
    13  H    0.358581  -0.022961
    14  H   -0.022961   0.358580
 Mulliken charges:
               1
     1  C   -0.178581
     2  C   -0.256471
     3  C    0.304754
     4  C   -0.256470
     5  C   -0.178581
     6  C   -0.234480
     7  H    0.199151
     8  H    0.191513
     9  H    0.191512
    10  H    0.199151
    11  H    0.194440
    12  N   -0.895841
    13  H    0.359952
    14  H    0.359952
 Sum of Mulliken charges =   0.00000
 Mulliken charges with hydrogens summed into heavy atoms:
               1
     1  C    0.020570
     2  C   -0.064958
     3  C    0.304754
     4  C   -0.064957
     5  C    0.020570
     6  C   -0.040041
    12  N   -0.175937
 DipInt: DoE/N= T F RetVal/Mat= T F Init=T NMatP=  1 IDeriv=0 Min/MaxMlt=  0  4
 Entering OneElI...
 OneElI was handed    33515911 working-precision words.
 Multipole integrals L=0 to 4 MinM= 0 MaxM= 0.
 Requested accuracy = 0.1000D-12
 ShPair: Thresh= 1.00D-13 NBox=     0 BxSize= 0.00D+00 RnKept= 1.10D+01
         NSMCal=                  903 NSMKep=                 883
 PrsmSu:  NPrtUS=   1 ThrOK=F IAlg=1 NPAlg=1 LenDen=           0.
 Prism:   IPart=     0 DynPar=F LinDyn=F Incr=           8.
 PRISM was handed    33430929 working-precision words and   883 shell-pairs
 IPart=  0 NShTot=         883 NBatch=          36 AvBLen=        24.5
 PrSmSu:  NxtVal=              9.
 Electronic moments (au):
        -50.00000000          0.36110034         -0.00000322          0.49683578
       -429.83464367       -222.34636751        -35.51275593         -0.00002439
          2.83078411         -0.00000025       -270.49612443         -0.00005255
          1.25112543        150.53069103         -0.00024821          3.71120374
          0.09886213         -0.00003440         -1.08399453          0.00011321
      -8022.77766983      -2482.66677379       -133.89795666          0.00031003
         31.45721340         -0.00078135          0.00036711          7.65757889
         -0.00001515      -1180.66664539       -324.80878635       -174.32241432
         -0.00048886         -3.25630328         -0.00010802
 Electronic spatial extent (au):  <R**2>=            687.6938
 DipInt: DoE/N= F T RetVal/Mat= T F Init=T NMatP=  1 IDeriv=0 Min/MaxMlt=  0  4
 Nuclear    moments (au):
         50.00000000          0.00000000          0.00000000          0.00000000
        403.74889064        195.58954989          0.75852390          0.00000000
         -0.00003574          0.00000397        289.38570827          0.00010791
          0.30109903       -143.64369266          0.00009222         12.09733575
          3.80175595          0.00002894          2.21781417         -0.00006478
       6703.70482827       1750.10495202          0.18032711         -0.00118332
         55.22875030          0.00073526         -0.00051163          1.59938741
          0.00002090        863.73573449         19.48960634          1.51892932
          0.00074105         10.15303507          0.00013601
 Total      moments (au):
          0.00000000          0.36110034         -0.00000322          0.49683578
        -26.08575303        -26.75681762        -34.75423204         -0.00002439
          2.83074836          0.00000372         18.88958383          0.00005536
          1.55222446          6.88699837         -0.00015598         15.80853950
          3.90061808         -0.00000546          1.13381965          0.00004843
      -1319.07284156       -732.56182177       -133.71762955         -0.00087329
         86.68596370         -0.00004609         -0.00014452          9.25696631
          0.00000575       -316.93091091       -305.31918001       -172.80348500
          0.00025219          6.89673179          0.00002799
 Traceless Quadrup. (au):
          3.11318120          2.44211661         -5.55529781         -0.00002439
          2.83074836          0.00000372
 Charge=              0.0000 electrons
 Dipole moment (field-independent basis, Debye):
    X=              0.9178    Y=              0.0000    Z=              1.2628  Tot=              1.5611
 Quadrupole moment (field-independent basis, Debye-Ang):
   XX=            -35.0862   YY=            -35.9888   ZZ=            -46.7456
   XY=              0.0000   XZ=              3.8075   YZ=              0.0000
 Traceless Quadrupole moment (field-independent basis, Debye-Ang):
   XX=              4.1873   YY=              3.2847   ZZ=             -7.4721
   XY=              0.0000   XZ=              3.8075   YZ=              0.0000
 Octapole moment (field-independent basis, Debye-Ang**2):
  XXX=             13.4449  YYY=              0.0000  ZZZ=              1.1048  XYY=              4.9019
  XXY=             -0.0001  XXZ=             11.2519  XZZ=              2.7763  YZZ=              0.0000
  YYZ=              0.8070  XYZ=              0.0000
 Hexadecapole moment (field-independent basis, Debye-Ang**3):
 XXXX=           -496.8261 YYYY=           -275.9179 ZZZZ=            -50.3645 XXXY=             -0.0003
 XXXZ=             32.6501 YYYX=              0.0000 YYYZ=             -0.0001 ZZZX=              3.4866
 ZZZY=              0.0000 XXYY=           -119.3714 XXZZ=           -114.9978 YYZZ=            -65.0861
 XXYZ=              0.0001 YYXZ=              2.5976 ZZXY=              0.0000
 N-N= 2.709450020640D+02 E-N=-1.207917770541D+03  KE= 2.850950671847D+02
 Entering OneElI...
 OneElI was handed    33522582 working-precision words.
 Calculate electrostatic properties
    NBasis =   119  MinDer = 0  MaxDer = 0
    NGrid  =    14  NMatD  =   1
 Requested accuracy = 0.1000D-12
 ShPair: Thresh= 1.00D-13 NBox=     0 BxSize= 0.00D+00 RnKept= 1.10D+01
         NSMCal=                  903 NSMKep=                 857
 PrsmSu:  NPrtUS=   1 ThrOK=F IAlg=1 NPAlg=1 LenDen=           0.
 Prism:   IPart=     0 DynPar=F LinDyn=F Incr=         119.
 PRISM was handed    33441286 working-precision words and   857 shell-pairs
 IPart=  0 NShTot=       11998 NBatch=         857 AvBLen=        14.0
 PrSmSu:  NxtVal=            120.
 --------------------------------------------------------
       Center         ----      EFG at Nuclei      ----
                      3XX-RR        3YY-RR        3ZZ-RR
 --------------------------------------------------------
     1   Atom        0.199406      0.173080     -0.372486
     2   Atom        0.135786      0.054385     -0.190171
     3   Atom        0.021133      0.340343     -0.361476
     4   Atom        0.135789      0.054385     -0.190173
     5   Atom        0.199408      0.173078     -0.372486
     6   Atom        0.090849      0.147221     -0.238070
     7   Atom        0.035019     -0.198637      0.163618
     8   Atom        0.025258     -0.196693      0.171436
     9   Atom        0.025252     -0.196688      0.171436
    10   Atom        0.035022     -0.198640      0.163618
    11   Atom       -0.312086      0.142082      0.170004
    12   Atom       -0.520510     -0.493594      1.014104
    13   Atom        0.061929     -0.215826      0.153896
    14   Atom        0.061929     -0.215829      0.153900
 --------------------------------------------------------
                        XY            XZ            YZ
 --------------------------------------------------------
     1   Atom        0.037155     -0.005774      0.000442
     2   Atom       -0.016039     -0.005085      0.002559
     3   Atom        0.000000      0.017294      0.000000
     4   Atom        0.016041     -0.005085     -0.002559
     5   Atom       -0.037153     -0.005774     -0.000442
     6   Atom        0.000001     -0.002906      0.000000
     7   Atom        0.193134      0.001183     -0.002079
     8   Atom       -0.193014      0.000157      0.002854
     9   Atom        0.193017      0.000156     -0.002852
    10   Atom       -0.193133      0.001183      0.002080
    11   Atom       -0.000001      0.003743      0.000000
    12   Atom        0.000004     -0.343363     -0.000008
    13   Atom       -0.195734     -0.109196     -0.181067
    14   Atom        0.195735     -0.109194      0.181064
 --------------------------------------------------------


 ---------------------------------------------------------------------------------
              Nuclear Quadrupole Coupling Constant in Principal Axis System
 ---------------------------------------------------------------------------------

       Atom             a.u.   MegaHertz   Gauss  10(-4) cm-1        Axes

              Baa    -0.5938     2.852     1.018     0.951  0.9780  0.0000  0.2088
    12 N(14)  Bbb    -0.4936     2.371     0.846     0.791  0.0000  1.0000  0.0000
              Bcc     1.0874    -5.223    -1.864    -1.742 -0.2088  0.0000  0.9780
 

 ---------------------------------------------------------------------------------

 No NMR shielding tensors so no spin-rotation constants.
 Leave Link  601 at Sat Jan 11 12:27:15 2020, MaxMem=    33554432 cpu:         0.1
 FitSet:  NAtFit=    14 NAtPot=    14 NAtFrz=     0 MDM=    18 TotChg=   0.00000
 Merz-Kollman atomic radii used.
 Atom Element Radius
    1     6    1.50
    2     6    1.50
    3     6    1.50
    4     6    1.50
    5     6    1.50
    6     6    1.50
    7     1    1.20
    8     1    1.20
    9     1    1.20
   10     1    1.20
   11     1    1.20
   12     7    1.50
   13     1    1.20
   14     1    1.20
 Generate VDW surfaces: Layer=10 Dens=17 Start= 1.400 Inc= 0.126

 **********************************************************************

            Electrostatic Properties Using The SCF Density

 **********************************************************************

       Atomic Center    1 is at  -1.171823  1.202607  0.003378
       Atomic Center    2 is at   0.221258  1.208250 -0.005175
       Atomic Center    3 is at   0.938744  0.000005 -0.010139
       Atomic Center    4 is at   0.221264 -1.208245 -0.005174
       Atomic Center    5 is at  -1.171814 -1.202613  0.003376
       Atomic Center    6 is at  -1.881692 -0.000004  0.008330
       Atomic Center    7 is at  -1.705685  2.149751  0.008797
       Atomic Center    8 is at   0.763316  2.151753 -0.013278
       Atomic Center    9 is at   0.763336 -2.151740 -0.013273
       Atomic Center   10 is at  -1.705670 -2.149760  0.008797
       Atomic Center   11 is at  -2.967653 -0.000007  0.016608
       Atomic Center   12 is at   2.337380  0.000001 -0.078910
       Atomic Center   13 is at   2.777535  0.834905  0.288575
       Atomic Center   14 is at   2.777536 -0.834906  0.288567
      ESP Fit Center   15 is at  -1.171823  1.202607  2.103378
      ESP Fit Center   16 is at  -0.928028  1.202607  2.089179
      ESP Fit Center   17 is at  -1.049925  1.413740  2.089179
      ESP Fit Center   18 is at  -1.293721  1.413740  2.089179
      ESP Fit Center   19 is at  -1.415618  1.202607  2.089179
      ESP Fit Center   20 is at  -1.293721  0.991474  2.089179
      ESP Fit Center   21 is at  -1.049925  0.991474  2.089179
      ESP Fit Center   22 is at  -0.687530  1.202607  2.046772
      ESP Fit Center   23 is at  -0.752413  1.444754  2.046772
      ESP Fit Center   24 is at  -0.929676  1.622017  2.046772
      ESP Fit Center   25 is at  -1.171823  1.686900  2.046772
      ESP Fit Center   26 is at  -1.413970  1.622017  2.046772
      ESP Fit Center   27 is at  -1.591233  1.444754  2.046772
      ESP Fit Center   28 is at  -1.656116  1.202607  2.046772
      ESP Fit Center   29 is at  -1.591233  0.960460  2.046772
      ESP Fit Center   30 is at  -1.413970  0.783197  2.046772
      ESP Fit Center   31 is at  -1.171823  0.718314  2.046772
      ESP Fit Center   32 is at  -0.929676  0.783197  2.046772
      ESP Fit Center   33 is at  -0.752413  0.960460  2.046772
      ESP Fit Center   34 is at  -0.496896  1.448260  1.976733
      ESP Fit Center   35 is at  -0.621617  1.664284  1.976733
      ESP Fit Center   36 is at  -0.812702  1.824623  1.976733
      ESP Fit Center   37 is at  -1.047102  1.909937  1.976733
      ESP Fit Center   38 is at  -1.296544  1.909937  1.976733
      ESP Fit Center   39 is at  -1.530944  1.824623  1.976733
      ESP Fit Center   40 is at  -1.722029  1.664284  1.976733
      ESP Fit Center   41 is at  -1.846750  1.448260  1.976733
      ESP Fit Center   42 is at  -1.890065  1.202607  1.976733
      ESP Fit Center   43 is at  -1.846750  0.956954  1.976733
      ESP Fit Center   44 is at  -1.722029  0.740930  1.976733
      ESP Fit Center   45 is at  -1.296544  0.495276  1.976733
      ESP Fit Center   46 is at  -1.047102  0.495276  1.976733
      ESP Fit Center   47 is at  -0.812702  0.580591  1.976733
      ESP Fit Center   48 is at  -0.621617  0.740930  1.976733
      ESP Fit Center   49 is at  -0.496896  0.956954  1.976733
      ESP Fit Center   50 is at  -0.505390  1.869040  1.880007
      ESP Fit Center   51 is at  -0.700584  2.018817  1.880007
      ESP Fit Center   52 is at  -0.927892  2.112971  1.880007
      ESP Fit Center   53 is at  -1.171823  2.145085  1.880007
      ESP Fit Center   54 is at  -1.415754  2.112971  1.880007
      ESP Fit Center   55 is at  -1.643062  2.018817  1.880007
      ESP Fit Center   56 is at  -1.838256  1.869040  1.880007
      ESP Fit Center   57 is at  -1.988033  1.673846  1.880007
      ESP Fit Center   58 is at  -2.082187  1.446538  1.880007
      ESP Fit Center   59 is at  -2.114301  1.202607  1.880007
      ESP Fit Center   60 is at  -2.082187  0.958676  1.880007
      ESP Fit Center   61 is at  -0.927892  0.292243  1.880007
      ESP Fit Center   62 is at  -0.700584  0.386397  1.880007
      ESP Fit Center   63 is at  -0.505390  0.536174  1.880007
      ESP Fit Center   64 is at  -0.631294  2.222152  1.757902
      ESP Fit Center   65 is at  -0.863104  2.314514  1.757902
      ESP Fit Center   66 is at  -1.109348  2.354883  1.757902
      ESP Fit Center   67 is at  -1.358514  2.341374  1.757902
      ESP Fit Center   68 is at  -1.598951  2.274617  1.757902
      ESP Fit Center   69 is at  -1.819415  2.157734  1.757902
      ESP Fit Center   70 is at  -2.009599  1.996191  1.757902
      ESP Fit Center   71 is at  -2.160609  1.797540  1.757902
      ESP Fit Center   72 is at  -2.265385  1.571071  1.757902
      ESP Fit Center   73 is at  -2.319027  1.327373  1.757902
      ESP Fit Center   74 is at  -2.319027  1.077841  1.757902
      ESP Fit Center   75 is at  -0.631294  0.183062  1.757902
      ESP Fit Center   76 is at  -0.570141  2.410947  1.612071
      ESP Fit Center   77 is at  -0.802418  2.500931  1.612071
      ESP Fit Center   78 is at  -1.047274  2.546703  1.612071
      ESP Fit Center   79 is at  -1.296372  2.546703  1.612071
      ESP Fit Center   80 is at  -2.319492  1.913213  1.612071
      ESP Fit Center   81 is at  -2.430524  1.690230  1.612071
      ESP Fit Center   82 is at  -2.498693  1.450642  1.612071
      ESP Fit Center   83 is at  -2.521677  1.202607  1.612071
      ESP Fit Center   84 is at  -0.517002  2.582614  1.444485
      ESP Fit Center   85 is at  -0.746850  2.669784  1.444485
      ESP Fit Center   86 is at  -0.987705  2.718954  1.444485
      ESP Fit Center   87 is at  -2.577077  1.801330  1.444485
      ESP Fit Center   88 is at  -2.654922  1.568158  1.444485
      ESP Fit Center   89 is at  -2.694354  1.325518  1.444485
      ESP Fit Center   90 is at  -0.513023  2.752892  1.257411
      ESP Fit Center   91 is at  -0.745767  2.832293  1.257411
      ESP Fit Center   92 is at  -2.815983  1.568859  1.257411
      ESP Fit Center   93 is at  -0.562793  2.916253  1.053378
      ESP Fit Center   94 is at  -3.064518  1.571209  0.835146
      ESP Fit Center   95 is at  -3.064518  1.571209 -0.828389
      ESP Fit Center   96 is at  -0.562793  2.916253 -1.046622
      ESP Fit Center   97 is at  -0.513023  2.752892 -1.250655
      ESP Fit Center   98 is at  -0.745767  2.832293 -1.250655
      ESP Fit Center   99 is at  -2.815983  1.568859 -1.250655
      ESP Fit Center  100 is at  -0.517002  2.582614 -1.437729
      ESP Fit Center  101 is at  -0.746850  2.669784 -1.437729
      ESP Fit Center  102 is at  -0.987705  2.718954 -1.437729
      ESP Fit Center  103 is at  -2.577077  1.801330 -1.437729
      ESP Fit Center  104 is at  -2.654922  1.568158 -1.437729
      ESP Fit Center  105 is at  -2.694354  1.325518 -1.437729
      ESP Fit Center  106 is at  -0.570141  2.410947 -1.605315
      ESP Fit Center  107 is at  -0.802418  2.500931 -1.605315
      ESP Fit Center  108 is at  -1.047274  2.546703 -1.605315
      ESP Fit Center  109 is at  -1.296372  2.546703 -1.605315
      ESP Fit Center  110 is at  -2.319492  1.913213 -1.605315
      ESP Fit Center  111 is at  -2.430524  1.690230 -1.605315
      ESP Fit Center  112 is at  -2.498693  1.450642 -1.605315
      ESP Fit Center  113 is at  -2.521677  1.202607 -1.605315
      ESP Fit Center  114 is at  -0.631294  2.222152 -1.751146
      ESP Fit Center  115 is at  -0.863104  2.314514 -1.751146
      ESP Fit Center  116 is at  -1.109348  2.354883 -1.751146
      ESP Fit Center  117 is at  -1.358514  2.341374 -1.751146
      ESP Fit Center  118 is at  -1.598951  2.274617 -1.751146
      ESP Fit Center  119 is at  -1.819415  2.157734 -1.751146
      ESP Fit Center  120 is at  -2.009599  1.996191 -1.751146
      ESP Fit Center  121 is at  -2.160609  1.797540 -1.751146
      ESP Fit Center  122 is at  -2.265385  1.571071 -1.751146
      ESP Fit Center  123 is at  -2.319027  1.327373 -1.751146
      ESP Fit Center  124 is at  -2.319027  1.077841 -1.751146
      ESP Fit Center  125 is at  -0.631294  0.183062 -1.751146
      ESP Fit Center  126 is at  -0.505390  1.869040 -1.873251
      ESP Fit Center  127 is at  -0.700584  2.018817 -1.873251
      ESP Fit Center  128 is at  -0.927892  2.112971 -1.873251
      ESP Fit Center  129 is at  -1.171823  2.145085 -1.873251
      ESP Fit Center  130 is at  -1.415754  2.112971 -1.873251
      ESP Fit Center  131 is at  -1.643062  2.018817 -1.873251
      ESP Fit Center  132 is at  -1.838256  1.869040 -1.873251
      ESP Fit Center  133 is at  -1.988033  1.673846 -1.873251
      ESP Fit Center  134 is at  -2.082187  1.446538 -1.873251
      ESP Fit Center  135 is at  -2.114301  1.202607 -1.873251
      ESP Fit Center  136 is at  -2.082187  0.958676 -1.873251
      ESP Fit Center  137 is at  -0.927892  0.292243 -1.873251
      ESP Fit Center  138 is at  -0.700584  0.386397 -1.873251
      ESP Fit Center  139 is at  -0.505390  0.536174 -1.873251
      ESP Fit Center  140 is at  -0.496896  1.448260 -1.969976
      ESP Fit Center  141 is at  -0.621617  1.664284 -1.969976
      ESP Fit Center  142 is at  -0.812702  1.824623 -1.969976
      ESP Fit Center  143 is at  -1.047102  1.909937 -1.969976
      ESP Fit Center  144 is at  -1.296544  1.909937 -1.969976
      ESP Fit Center  145 is at  -1.530944  1.824623 -1.969976
      ESP Fit Center  146 is at  -1.722029  1.664284 -1.969976
      ESP Fit Center  147 is at  -1.846750  1.448260 -1.969976
      ESP Fit Center  148 is at  -1.890065  1.202607 -1.969976
      ESP Fit Center  149 is at  -1.846750  0.956954 -1.969976
      ESP Fit Center  150 is at  -1.722029  0.740930 -1.969976
      ESP Fit Center  151 is at  -1.296544  0.495276 -1.969976
      ESP Fit Center  152 is at  -1.047102  0.495276 -1.969976
      ESP Fit Center  153 is at  -0.812702  0.580591 -1.969976
      ESP Fit Center  154 is at  -0.621617  0.740930 -1.969976
      ESP Fit Center  155 is at  -0.496896  0.956954 -1.969976
      ESP Fit Center  156 is at  -0.687530  1.202607 -2.040016
      ESP Fit Center  157 is at  -0.752413  1.444754 -2.040016
      ESP Fit Center  158 is at  -0.929676  1.622017 -2.040016
      ESP Fit Center  159 is at  -1.171823  1.686900 -2.040016
      ESP Fit Center  160 is at  -1.413970  1.622017 -2.040016
      ESP Fit Center  161 is at  -1.591233  1.444754 -2.040016
      ESP Fit Center  162 is at  -1.656116  1.202607 -2.040016
      ESP Fit Center  163 is at  -1.591233  0.960460 -2.040016
      ESP Fit Center  164 is at  -1.413970  0.783197 -2.040016
      ESP Fit Center  165 is at  -1.171823  0.718314 -2.040016
      ESP Fit Center  166 is at  -0.929676  0.783197 -2.040016
      ESP Fit Center  167 is at  -0.752413  0.960460 -2.040016
      ESP Fit Center  168 is at  -0.928028  1.202607 -2.082423
      ESP Fit Center  169 is at  -1.049925  1.413740 -2.082423
      ESP Fit Center  170 is at  -1.293721  1.413740 -2.082423
      ESP Fit Center  171 is at  -1.415618  1.202607 -2.082423
      ESP Fit Center  172 is at  -1.293721  0.991474 -2.082423
      ESP Fit Center  173 is at  -1.049925  0.991474 -2.082423
      ESP Fit Center  174 is at  -1.171823  1.202607 -2.096622
      ESP Fit Center  175 is at   0.221258  1.208250  2.094825
      ESP Fit Center  176 is at   0.465053  1.208250  2.080626
      ESP Fit Center  177 is at   0.343156  1.419383  2.080626
      ESP Fit Center  178 is at   0.099360  1.419383  2.080626
      ESP Fit Center  179 is at  -0.022537  1.208250  2.080626
      ESP Fit Center  180 is at   0.099360  0.997117  2.080626
      ESP Fit Center  181 is at   0.343156  0.997117  2.080626
      ESP Fit Center  182 is at   0.705551  1.208250  2.038219
      ESP Fit Center  183 is at   0.640668  1.450397  2.038219
      ESP Fit Center  184 is at   0.463405  1.627660  2.038219
      ESP Fit Center  185 is at   0.221258  1.692543  2.038219
      ESP Fit Center  186 is at  -0.020889  1.627660  2.038219
      ESP Fit Center  187 is at  -0.198152  1.450397  2.038219
      ESP Fit Center  188 is at  -0.263035  1.208250  2.038219
      ESP Fit Center  189 is at  -0.198152  0.966103  2.038219
      ESP Fit Center  190 is at  -0.020889  0.788840  2.038219
      ESP Fit Center  191 is at   0.221258  0.723957  2.038219
      ESP Fit Center  192 is at   0.463405  0.788840  2.038219
      ESP Fit Center  193 is at   0.640668  0.966103  2.038219
      ESP Fit Center  194 is at   0.939500  1.208250  1.968180
      ESP Fit Center  195 is at   0.896185  1.453903  1.968180
      ESP Fit Center  196 is at   0.771464  1.669927  1.968180
      ESP Fit Center  197 is at   0.580379  1.830266  1.968180
      ESP Fit Center  198 is at   0.345979  1.915581  1.968180
      ESP Fit Center  199 is at   0.096537  1.915581  1.968180
      ESP Fit Center  200 is at  -0.137863  1.830266  1.968180
      ESP Fit Center  201 is at  -0.328948  1.669927  1.968180
      ESP Fit Center  202 is at  -0.453669  1.453903  1.968180
      ESP Fit Center  203 is at  -0.453669  0.962597  1.968180
      ESP Fit Center  204 is at  -0.328948  0.746573  1.968180
      ESP Fit Center  205 is at  -0.137863  0.586234  1.968180
      ESP Fit Center  206 is at   0.096537  0.500919  1.968180
      ESP Fit Center  207 is at   0.345979  0.500919  1.968180
      ESP Fit Center  208 is at   0.771464  0.746573  1.968180
      ESP Fit Center  209 is at   0.896185  0.962597  1.968180
      ESP Fit Center  210 is at   1.163736  1.208250  1.871454
      ESP Fit Center  211 is at   1.131622  1.452181  1.871454
      ESP Fit Center  212 is at   1.037468  1.679489  1.871454
      ESP Fit Center  213 is at   0.887691  1.874683  1.871454
      ESP Fit Center  214 is at   0.692497  2.024460  1.871454
      ESP Fit Center  215 is at   0.465189  2.118614  1.871454
      ESP Fit Center  216 is at   0.221258  2.150728  1.871454
      ESP Fit Center  217 is at  -0.022673  2.118614  1.871454
      ESP Fit Center  218 is at  -0.249981  2.024460  1.871454
      ESP Fit Center  219 is at  -0.445175  1.874683  1.871454
      ESP Fit Center  220 is at  -0.445175  0.541817  1.871454
      ESP Fit Center  221 is at  -0.249981  0.392040  1.871454
      ESP Fit Center  222 is at  -0.022673  0.297886  1.871454
      ESP Fit Center  223 is at   1.131622  0.964319  1.871454
      ESP Fit Center  224 is at   1.375227  1.208250  1.749349
      ESP Fit Center  225 is at   1.348248  1.456319  1.749349
      ESP Fit Center  226 is at   1.268572  1.692789  1.749349
      ESP Fit Center  227 is at   1.139925  1.906602  1.749349
      ESP Fit Center  228 is at   0.968322  2.087761  1.749349
      ESP Fit Center  229 is at   0.761787  2.227795  1.749349
      ESP Fit Center  230 is at   0.529977  2.320157  1.749349
      ESP Fit Center  231 is at   0.283733  2.360526  1.749349
      ESP Fit Center  232 is at   0.034567  2.347017  1.749349
      ESP Fit Center  233 is at  -0.205870  2.280260  1.749349
      ESP Fit Center  234 is at  -0.426334  2.163377  1.749349
      ESP Fit Center  235 is at  -0.426334  0.253123  1.749349
      ESP Fit Center  236 is at  -0.205870  0.136240  1.749349
      ESP Fit Center  237 is at   1.571112  1.208250  1.603518
      ESP Fit Center  238 is at   1.548128  1.456285  1.603518
      ESP Fit Center  239 is at   1.479959  1.695873  1.603518
      ESP Fit Center  240 is at   1.368927  1.918857  1.603518
      ESP Fit Center  241 is at   1.218812  2.117641  1.603518
      ESP Fit Center  242 is at   0.345807  2.552346  1.603518
      ESP Fit Center  243 is at   0.096709  2.552346  1.603518
      ESP Fit Center  244 is at  -0.148147  2.506574  1.603518
      ESP Fit Center  245 is at  -0.380424  2.416590  1.603518
      ESP Fit Center  246 is at   1.670133  1.691955  1.435932
      ESP Fit Center  247 is at  -0.084278  2.704865  1.435932
      ESP Fit Center  248 is at  -0.320396  2.636473  1.435932
      ESP Fit Center  249 is at  -0.322621  2.802489  1.248858
      ESP Fit Center  250 is at  -0.387772  2.921896  1.044825
      ESP Fit Center  251 is at  -0.444693  3.017855  0.826593
      ESP Fit Center  252 is at  -0.444693  3.017855 -0.836942
      ESP Fit Center  253 is at  -0.387772  2.921896 -1.055175
      ESP Fit Center  254 is at   1.834297  1.693541 -1.259208
      ESP Fit Center  255 is at  -0.322621  2.802489 -1.259208
      ESP Fit Center  256 is at   1.670133  1.691955 -1.446282
      ESP Fit Center  257 is at  -0.084278  2.704865 -1.446282
      ESP Fit Center  258 is at  -0.320396  2.636473 -1.446282
      ESP Fit Center  259 is at   1.548128  1.456285 -1.613868
      ESP Fit Center  260 is at   1.479959  1.695873 -1.613868
      ESP Fit Center  261 is at   1.368927  1.918857 -1.613868
      ESP Fit Center  262 is at   0.345807  2.552346 -1.613868
      ESP Fit Center  263 is at   0.096709  2.552346 -1.613868
      ESP Fit Center  264 is at  -0.148147  2.506574 -1.613868
      ESP Fit Center  265 is at  -0.380424  2.416590 -1.613868
      ESP Fit Center  266 is at   1.375227  1.208250 -1.759699
      ESP Fit Center  267 is at   1.348248  1.456319 -1.759699
      ESP Fit Center  268 is at   1.268572  1.692789 -1.759699
      ESP Fit Center  269 is at   1.139925  1.906602 -1.759699
      ESP Fit Center  270 is at   0.968322  2.087761 -1.759699
      ESP Fit Center  271 is at   0.761787  2.227795 -1.759699
      ESP Fit Center  272 is at   0.529977  2.320157 -1.759699
      ESP Fit Center  273 is at   0.283733  2.360526 -1.759699
      ESP Fit Center  274 is at   0.034567  2.347017 -1.759699
      ESP Fit Center  275 is at  -0.205870  2.280260 -1.759699
      ESP Fit Center  276 is at  -0.426334  2.163377 -1.759699
      ESP Fit Center  277 is at  -0.426334  0.253123 -1.759699
      ESP Fit Center  278 is at   1.163736  1.208250 -1.881804
      ESP Fit Center  279 is at   1.131622  1.452181 -1.881804
      ESP Fit Center  280 is at   1.037468  1.679489 -1.881804
      ESP Fit Center  281 is at   0.887691  1.874683 -1.881804
      ESP Fit Center  282 is at   0.692497  2.024460 -1.881804
      ESP Fit Center  283 is at   0.465189  2.118614 -1.881804
      ESP Fit Center  284 is at   0.221258  2.150728 -1.881804
      ESP Fit Center  285 is at  -0.022673  2.118614 -1.881804
      ESP Fit Center  286 is at  -0.249981  2.024460 -1.881804
      ESP Fit Center  287 is at  -0.445175  1.874683 -1.881804
      ESP Fit Center  288 is at  -0.445175  0.541817 -1.881804
      ESP Fit Center  289 is at  -0.249981  0.392040 -1.881804
      ESP Fit Center  290 is at  -0.022673  0.297886 -1.881804
      ESP Fit Center  291 is at   1.131622  0.964319 -1.881804
      ESP Fit Center  292 is at   0.939500  1.208250 -1.978529
      ESP Fit Center  293 is at   0.896185  1.453903 -1.978529
      ESP Fit Center  294 is at   0.771464  1.669927 -1.978529
      ESP Fit Center  295 is at   0.580379  1.830266 -1.978529
      ESP Fit Center  296 is at   0.345979  1.915581 -1.978529
      ESP Fit Center  297 is at   0.096537  1.915581 -1.978529
      ESP Fit Center  298 is at  -0.137863  1.830266 -1.978529
      ESP Fit Center  299 is at  -0.328948  1.669927 -1.978529
      ESP Fit Center  300 is at  -0.453669  1.453903 -1.978529
      ESP Fit Center  301 is at  -0.453669  0.962597 -1.978529
      ESP Fit Center  302 is at  -0.328948  0.746573 -1.978529
      ESP Fit Center  303 is at  -0.137863  0.586234 -1.978529
      ESP Fit Center  304 is at   0.096537  0.500919 -1.978529
      ESP Fit Center  305 is at   0.345979  0.500919 -1.978529
      ESP Fit Center  306 is at   0.771464  0.746573 -1.978529
      ESP Fit Center  307 is at   0.896185  0.962597 -1.978529
      ESP Fit Center  308 is at   0.705551  1.208250 -2.048569
      ESP Fit Center  309 is at   0.640668  1.450397 -2.048569
      ESP Fit Center  310 is at   0.463405  1.627660 -2.048569
      ESP Fit Center  311 is at   0.221258  1.692543 -2.048569
      ESP Fit Center  312 is at  -0.020889  1.627660 -2.048569
      ESP Fit Center  313 is at  -0.198152  1.450397 -2.048569
      ESP Fit Center  314 is at  -0.263035  1.208250 -2.048569
      ESP Fit Center  315 is at  -0.198152  0.966103 -2.048569
      ESP Fit Center  316 is at  -0.020889  0.788840 -2.048569
      ESP Fit Center  317 is at   0.221258  0.723957 -2.048569
      ESP Fit Center  318 is at   0.463405  0.788840 -2.048569
      ESP Fit Center  319 is at   0.640668  0.966103 -2.048569
      ESP Fit Center  320 is at   0.465053  1.208250 -2.090976
      ESP Fit Center  321 is at   0.343156  1.419383 -2.090976
      ESP Fit Center  322 is at   0.099360  1.419383 -2.090976
      ESP Fit Center  323 is at  -0.022537  1.208250 -2.090976
      ESP Fit Center  324 is at   0.099360  0.997117 -2.090976
      ESP Fit Center  325 is at   0.343156  0.997117 -2.090976
      ESP Fit Center  326 is at   0.221258  1.208250 -2.105175
      ESP Fit Center  327 is at   0.938744  0.000005  2.089861
      ESP Fit Center  328 is at   1.182539  0.000005  2.075662
      ESP Fit Center  329 is at   1.060642  0.211138  2.075662
      ESP Fit Center  330 is at   0.816847  0.211138  2.075662
      ESP Fit Center  331 is at   0.694949  0.000005  2.075662
      ESP Fit Center  332 is at   0.816847 -0.211128  2.075662
      ESP Fit Center  333 is at   1.060642 -0.211128  2.075662
      ESP Fit Center  334 is at   1.423037  0.000005  2.033255
      ESP Fit Center  335 is at   1.358154  0.242152  2.033255
      ESP Fit Center  336 is at   1.180891  0.419415  2.033255
      ESP Fit Center  337 is at   0.938744  0.484298  2.033255
      ESP Fit Center  338 is at   0.696597  0.419415  2.033255
      ESP Fit Center  339 is at   0.519334  0.242152  2.033255
      ESP Fit Center  340 is at   0.454451  0.000005  2.033255
      ESP Fit Center  341 is at   0.519334 -0.242142  2.033255
      ESP Fit Center  342 is at   0.696597 -0.419405  2.033255
      ESP Fit Center  343 is at   0.938744 -0.484288  2.033255
      ESP Fit Center  344 is at   1.180891 -0.419405  2.033255
      ESP Fit Center  345 is at   1.358154 -0.242142  2.033255
      ESP Fit Center  346 is at   1.656986  0.000005  1.963216
      ESP Fit Center  347 is at   1.613671  0.245658  1.963216
      ESP Fit Center  348 is at   1.488950  0.461682  1.963216
      ESP Fit Center  349 is at   1.297865  0.622021  1.963216
      ESP Fit Center  350 is at   1.063466  0.707336  1.963216
      ESP Fit Center  351 is at   0.814023  0.707336  1.963216
      ESP Fit Center  352 is at   0.388539  0.461682  1.963216
      ESP Fit Center  353 is at   0.263817  0.245658  1.963216
      ESP Fit Center  354 is at   0.220502  0.000005  1.963216
      ESP Fit Center  355 is at   0.263817 -0.245648  1.963216
      ESP Fit Center  356 is at   0.388539 -0.461672  1.963216
      ESP Fit Center  357 is at   0.814023 -0.707326  1.963216
      ESP Fit Center  358 is at   1.063466 -0.707326  1.963216
      ESP Fit Center  359 is at   1.297865 -0.622011  1.963216
      ESP Fit Center  360 is at   1.488950 -0.461672  1.963216
      ESP Fit Center  361 is at   1.613671 -0.245648  1.963216
      ESP Fit Center  362 is at   1.605177  0.666438  1.866490
      ESP Fit Center  363 is at   1.409983  0.816215  1.866490
      ESP Fit Center  364 is at   1.182675  0.910369  1.866490
      ESP Fit Center  365 is at   0.028380  0.243936  1.866490
      ESP Fit Center  366 is at  -0.003734  0.000005  1.866490
      ESP Fit Center  367 is at   0.028380 -0.243926  1.866490
      ESP Fit Center  368 is at   1.182675 -0.910359  1.866490
      ESP Fit Center  369 is at   1.409983 -0.816205  1.866490
      ESP Fit Center  370 is at   1.605177 -0.666428  1.866490
      ESP Fit Center  371 is at   1.685808  0.879516  1.744385
      ESP Fit Center  372 is at   1.479273  1.019550  1.744385
      ESP Fit Center  373 is at  -0.208460  0.124771  1.744385
      ESP Fit Center  374 is at  -0.208460 -0.124761  1.744385
      ESP Fit Center  375 is at   1.479273 -1.019540  1.744385
      ESP Fit Center  376 is at   1.685808 -0.879506  1.744385
      ESP Fit Center  377 is at  -0.411110  0.000005  1.598554
      ESP Fit Center  378 is at  -0.411110  0.000005 -1.618832
      ESP Fit Center  379 is at   1.479273  1.019550 -1.764663
      ESP Fit Center  380 is at  -0.208460  0.124771 -1.764663
      ESP Fit Center  381 is at  -0.208460 -0.124761 -1.764663
      ESP Fit Center  382 is at   1.479273 -1.019540 -1.764663
      ESP Fit Center  383 is at   1.409983  0.816215 -1.886768
      ESP Fit Center  384 is at   1.182675  0.910369 -1.886768
      ESP Fit Center  385 is at   0.028380  0.243936 -1.886768
      ESP Fit Center  386 is at  -0.003734  0.000005 -1.886768
      ESP Fit Center  387 is at   0.028380 -0.243926 -1.886768
      ESP Fit Center  388 is at   1.182675 -0.910359 -1.886768
      ESP Fit Center  389 is at   1.409983 -0.816205 -1.886768
      ESP Fit Center  390 is at   1.488950  0.461682 -1.983493
      ESP Fit Center  391 is at   1.297865  0.622021 -1.983493
      ESP Fit Center  392 is at   1.063466  0.707336 -1.983493
      ESP Fit Center  393 is at   0.814023  0.707336 -1.983493
      ESP Fit Center  394 is at   0.388539  0.461682 -1.983493
      ESP Fit Center  395 is at   0.263817  0.245658 -1.983493
      ESP Fit Center  396 is at   0.220502  0.000005 -1.983493
      ESP Fit Center  397 is at   0.263817 -0.245648 -1.983493
      ESP Fit Center  398 is at   0.388539 -0.461672 -1.983493
      ESP Fit Center  399 is at   0.814023 -0.707326 -1.983493
      ESP Fit Center  400 is at   1.063466 -0.707326 -1.983493
      ESP Fit Center  401 is at   1.297865 -0.622011 -1.983493
      ESP Fit Center  402 is at   1.488950 -0.461672 -1.983493
      ESP Fit Center  403 is at   1.423037  0.000005 -2.053533
      ESP Fit Center  404 is at   1.358154  0.242152 -2.053533
      ESP Fit Center  405 is at   1.180891  0.419415 -2.053533
      ESP Fit Center  406 is at   0.938744  0.484298 -2.053533
      ESP Fit Center  407 is at   0.696597  0.419415 -2.053533
      ESP Fit Center  408 is at   0.519334  0.242152 -2.053533
      ESP Fit Center  409 is at   0.454451  0.000005 -2.053533
      ESP Fit Center  410 is at   0.519334 -0.242142 -2.053533
      ESP Fit Center  411 is at   0.696597 -0.419405 -2.053533
      ESP Fit Center  412 is at   0.938744 -0.484288 -2.053533
      ESP Fit Center  413 is at   1.180891 -0.419405 -2.053533
      ESP Fit Center  414 is at   1.358154 -0.242142 -2.053533
      ESP Fit Center  415 is at   1.182539  0.000005 -2.095940
      ESP Fit Center  416 is at   1.060642  0.211138 -2.095940
      ESP Fit Center  417 is at   0.816847  0.211138 -2.095940
      ESP Fit Center  418 is at   0.694949  0.000005 -2.095940
      ESP Fit Center  419 is at   0.816847 -0.211128 -2.095940
      ESP Fit Center  420 is at   1.060642 -0.211128 -2.095940
      ESP Fit Center  421 is at   0.938744  0.000005 -2.110139
      ESP Fit Center  422 is at   0.221264 -1.208245  2.094826
      ESP Fit Center  423 is at   0.465059 -1.208245  2.080627
      ESP Fit Center  424 is at   0.343162 -0.997112  2.080627
      ESP Fit Center  425 is at   0.099367 -0.997112  2.080627
      ESP Fit Center  426 is at  -0.022531 -1.208245  2.080627
      ESP Fit Center  427 is at   0.099367 -1.419378  2.080627
      ESP Fit Center  428 is at   0.343162 -1.419378  2.080627
      ESP Fit Center  429 is at   0.705557 -1.208245  2.038220
      ESP Fit Center  430 is at   0.640674 -0.966098  2.038220
      ESP Fit Center  431 is at   0.463411 -0.788835  2.038220
      ESP Fit Center  432 is at   0.221264 -0.723952  2.038220
      ESP Fit Center  433 is at  -0.020883 -0.788835  2.038220
      ESP Fit Center  434 is at  -0.198146 -0.966098  2.038220
      ESP Fit Center  435 is at  -0.263029 -1.208245  2.038220
      ESP Fit Center  436 is at  -0.198146 -1.450392  2.038220
      ESP Fit Center  437 is at  -0.020883 -1.627655  2.038220
      ESP Fit Center  438 is at   0.221264 -1.692538  2.038220
      ESP Fit Center  439 is at   0.463411 -1.627655  2.038220
      ESP Fit Center  440 is at   0.640674 -1.450392  2.038220
      ESP Fit Center  441 is at   0.939506 -1.208245  1.968181
      ESP Fit Center  442 is at   0.896191 -0.962592  1.968181
      ESP Fit Center  443 is at   0.771470 -0.746568  1.968181
      ESP Fit Center  444 is at   0.345986 -0.500914  1.968181
      ESP Fit Center  445 is at   0.096543 -0.500914  1.968181
      ESP Fit Center  446 is at  -0.137857 -0.586229  1.968181
      ESP Fit Center  447 is at  -0.328941 -0.746568  1.968181
      ESP Fit Center  448 is at  -0.453663 -0.962592  1.968181
      ESP Fit Center  449 is at  -0.453663 -1.453898  1.968181
      ESP Fit Center  450 is at  -0.328941 -1.669922  1.968181
      ESP Fit Center  451 is at  -0.137857 -1.830261  1.968181
      ESP Fit Center  452 is at   0.096543 -1.915576  1.968181
      ESP Fit Center  453 is at   0.345986 -1.915576  1.968181
      ESP Fit Center  454 is at   0.580385 -1.830261  1.968181
      ESP Fit Center  455 is at   0.771470 -1.669922  1.968181
      ESP Fit Center  456 is at   0.896191 -1.453898  1.968181
      ESP Fit Center  457 is at   1.163742 -1.208245  1.871455
      ESP Fit Center  458 is at   1.131628 -0.964314  1.871455
      ESP Fit Center  459 is at  -0.022667 -0.297881  1.871455
      ESP Fit Center  460 is at  -0.249975 -0.392035  1.871455
      ESP Fit Center  461 is at  -0.445169 -0.541812  1.871455
      ESP Fit Center  462 is at  -0.445169 -1.874678  1.871455
      ESP Fit Center  463 is at  -0.249975 -2.024455  1.871455
      ESP Fit Center  464 is at  -0.022667 -2.118609  1.871455
      ESP Fit Center  465 is at   0.221264 -2.150723  1.871455
      ESP Fit Center  466 is at   0.465195 -2.118609  1.871455
      ESP Fit Center  467 is at   0.692503 -2.024455  1.871455
      ESP Fit Center  468 is at   0.887697 -1.874678  1.871455
      ESP Fit Center  469 is at   1.037474 -1.679484  1.871455
      ESP Fit Center  470 is at   1.131628 -1.452176  1.871455
      ESP Fit Center  471 is at   1.375233 -1.208245  1.749350
      ESP Fit Center  472 is at  -0.205864 -0.136235  1.749350
      ESP Fit Center  473 is at  -0.426328 -0.253118  1.749350
      ESP Fit Center  474 is at  -0.426328 -2.163372  1.749350
      ESP Fit Center  475 is at  -0.205864 -2.280255  1.749350
      ESP Fit Center  476 is at   0.034573 -2.347012  1.749350
      ESP Fit Center  477 is at   0.283739 -2.360522  1.749350
      ESP Fit Center  478 is at   0.529983 -2.320152  1.749350
      ESP Fit Center  479 is at   0.761793 -2.227790  1.749350
      ESP Fit Center  480 is at   0.968328 -2.087756  1.749350
      ESP Fit Center  481 is at   1.139931 -1.906597  1.749350
      ESP Fit Center  482 is at   1.268578 -1.692784  1.749350
      ESP Fit Center  483 is at   1.348254 -1.456314  1.749350
      ESP Fit Center  484 is at   1.571118 -1.208245  1.603519
      ESP Fit Center  485 is at  -0.380418 -2.416585  1.603519
      ESP Fit Center  486 is at  -0.148141 -2.506569  1.603519
      ESP Fit Center  487 is at   0.096715 -2.552341  1.603519
      ESP Fit Center  488 is at   0.345813 -2.552341  1.603519
      ESP Fit Center  489 is at   1.218818 -2.117636  1.603519
      ESP Fit Center  490 is at   1.368933 -1.918852  1.603519
      ESP Fit Center  491 is at   1.479965 -1.695869  1.603519
      ESP Fit Center  492 is at   1.548134 -1.456280  1.603519
      ESP Fit Center  493 is at  -0.320389 -2.636468  1.435933
      ESP Fit Center  494 is at  -0.084272 -2.704860  1.435933
      ESP Fit Center  495 is at   1.670139 -1.691951  1.435933
      ESP Fit Center  496 is at  -0.322615 -2.802484  1.248859
      ESP Fit Center  497 is at  -0.387766 -2.921891  1.044826
      ESP Fit Center  498 is at  -0.444687 -3.017850  0.826594
      ESP Fit Center  499 is at  -0.444687 -3.017850 -0.836941
      ESP Fit Center  500 is at  -0.387766 -2.921891 -1.055174
      ESP Fit Center  501 is at  -0.322615 -2.802484 -1.259207
      ESP Fit Center  502 is at   1.834303 -1.693536 -1.259207
      ESP Fit Center  503 is at  -0.320389 -2.636468 -1.446281
      ESP Fit Center  504 is at  -0.084272 -2.704860 -1.446281
      ESP Fit Center  505 is at   1.670139 -1.691951 -1.446281
      ESP Fit Center  506 is at  -0.380418 -2.416585 -1.613867
      ESP Fit Center  507 is at  -0.148141 -2.506569 -1.613867
      ESP Fit Center  508 is at   0.096715 -2.552341 -1.613867
      ESP Fit Center  509 is at   0.345813 -2.552341 -1.613867
      ESP Fit Center  510 is at   1.368933 -1.918852 -1.613867
      ESP Fit Center  511 is at   1.479965 -1.695869 -1.613867
      ESP Fit Center  512 is at   1.548134 -1.456280 -1.613867
      ESP Fit Center  513 is at   1.375233 -1.208245 -1.759698
      ESP Fit Center  514 is at  -0.426328 -0.253118 -1.759698
      ESP Fit Center  515 is at  -0.426328 -2.163372 -1.759698
      ESP Fit Center  516 is at  -0.205864 -2.280255 -1.759698
      ESP Fit Center  517 is at   0.034573 -2.347012 -1.759698
      ESP Fit Center  518 is at   0.283739 -2.360522 -1.759698
      ESP Fit Center  519 is at   0.529983 -2.320152 -1.759698
      ESP Fit Center  520 is at   0.761793 -2.227790 -1.759698
      ESP Fit Center  521 is at   0.968328 -2.087756 -1.759698
      ESP Fit Center  522 is at   1.139931 -1.906597 -1.759698
      ESP Fit Center  523 is at   1.268578 -1.692784 -1.759698
      ESP Fit Center  524 is at   1.348254 -1.456314 -1.759698
      ESP Fit Center  525 is at   1.163742 -1.208245 -1.881803
      ESP Fit Center  526 is at   1.131628 -0.964314 -1.881803
      ESP Fit Center  527 is at  -0.022667 -0.297881 -1.881803
      ESP Fit Center  528 is at  -0.249975 -0.392035 -1.881803
      ESP Fit Center  529 is at  -0.445169 -0.541812 -1.881803
      ESP Fit Center  530 is at  -0.445169 -1.874678 -1.881803
      ESP Fit Center  531 is at  -0.249975 -2.024455 -1.881803
      ESP Fit Center  532 is at  -0.022667 -2.118609 -1.881803
      ESP Fit Center  533 is at   0.221264 -2.150723 -1.881803
      ESP Fit Center  534 is at   0.465195 -2.118609 -1.881803
      ESP Fit Center  535 is at   0.692503 -2.024455 -1.881803
      ESP Fit Center  536 is at   0.887697 -1.874678 -1.881803
      ESP Fit Center  537 is at   1.037474 -1.679484 -1.881803
      ESP Fit Center  538 is at   1.131628 -1.452176 -1.881803
      ESP Fit Center  539 is at   0.939506 -1.208245 -1.978528
      ESP Fit Center  540 is at   0.896191 -0.962592 -1.978528
      ESP Fit Center  541 is at   0.771470 -0.746568 -1.978528
      ESP Fit Center  542 is at   0.345986 -0.500914 -1.978528
      ESP Fit Center  543 is at   0.096543 -0.500914 -1.978528
      ESP Fit Center  544 is at  -0.137857 -0.586229 -1.978528
      ESP Fit Center  545 is at  -0.328941 -0.746568 -1.978528
      ESP Fit Center  546 is at  -0.453663 -0.962592 -1.978528
      ESP Fit Center  547 is at  -0.453663 -1.453898 -1.978528
      ESP Fit Center  548 is at  -0.328941 -1.669922 -1.978528
      ESP Fit Center  549 is at  -0.137857 -1.830261 -1.978528
      ESP Fit Center  550 is at   0.096543 -1.915576 -1.978528
      ESP Fit Center  551 is at   0.345986 -1.915576 -1.978528
      ESP Fit Center  552 is at   0.580385 -1.830261 -1.978528
      ESP Fit Center  553 is at   0.771470 -1.669922 -1.978528
      ESP Fit Center  554 is at   0.896191 -1.453898 -1.978528
      ESP Fit Center  555 is at   0.705557 -1.208245 -2.048568
      ESP Fit Center  556 is at   0.640674 -0.966098 -2.048568
      ESP Fit Center  557 is at   0.463411 -0.788835 -2.048568
      ESP Fit Center  558 is at   0.221264 -0.723952 -2.048568
      ESP Fit Center  559 is at  -0.020883 -0.788835 -2.048568
      ESP Fit Center  560 is at  -0.198146 -0.966098 -2.048568
      ESP Fit Center  561 is at  -0.263029 -1.208245 -2.048568
      ESP Fit Center  562 is at  -0.198146 -1.450392 -2.048568
      ESP Fit Center  563 is at  -0.020883 -1.627655 -2.048568
      ESP Fit Center  564 is at   0.221264 -1.692538 -2.048568
      ESP Fit Center  565 is at   0.463411 -1.627655 -2.048568
      ESP Fit Center  566 is at   0.640674 -1.450392 -2.048568
      ESP Fit Center  567 is at   0.465059 -1.208245 -2.090975
      ESP Fit Center  568 is at   0.343162 -0.997112 -2.090975
      ESP Fit Center  569 is at   0.099367 -0.997112 -2.090975
      ESP Fit Center  570 is at  -0.022531 -1.208245 -2.090975
      ESP Fit Center  571 is at   0.099367 -1.419378 -2.090975
      ESP Fit Center  572 is at   0.343162 -1.419378 -2.090975
      ESP Fit Center  573 is at   0.221264 -1.208245 -2.105174
      ESP Fit Center  574 is at  -1.171814 -1.202613  2.103376
      ESP Fit Center  575 is at  -0.928019 -1.202613  2.089177
      ESP Fit Center  576 is at  -1.049916 -0.991480  2.089177
      ESP Fit Center  577 is at  -1.293711 -0.991480  2.089177
      ESP Fit Center  578 is at  -1.415609 -1.202613  2.089177
      ESP Fit Center  579 is at  -1.293711 -1.413746  2.089177
      ESP Fit Center  580 is at  -1.049916 -1.413746  2.089177
      ESP Fit Center  581 is at  -0.687521 -1.202613  2.046770
      ESP Fit Center  582 is at  -0.752404 -0.960466  2.046770
      ESP Fit Center  583 is at  -0.929667 -0.783203  2.046770
      ESP Fit Center  584 is at  -1.171814 -0.718320  2.046770
      ESP Fit Center  585 is at  -1.413961 -0.783203  2.046770
      ESP Fit Center  586 is at  -1.591224 -0.960466  2.046770
      ESP Fit Center  587 is at  -1.656107 -1.202613  2.046770
      ESP Fit Center  588 is at  -1.591224 -1.444760  2.046770
      ESP Fit Center  589 is at  -1.413961 -1.622023  2.046770
      ESP Fit Center  590 is at  -1.171814 -1.686906  2.046770
      ESP Fit Center  591 is at  -0.929667 -1.622023  2.046770
      ESP Fit Center  592 is at  -0.752404 -1.444760  2.046770
      ESP Fit Center  593 is at  -0.496887 -0.956960  1.976731
      ESP Fit Center  594 is at  -0.621608 -0.740936  1.976731
      ESP Fit Center  595 is at  -0.812693 -0.580597  1.976731
      ESP Fit Center  596 is at  -1.047092 -0.495283  1.976731
      ESP Fit Center  597 is at  -1.296535 -0.495283  1.976731
      ESP Fit Center  598 is at  -1.722019 -0.740936  1.976731
      ESP Fit Center  599 is at  -1.846741 -0.956960  1.976731
      ESP Fit Center  600 is at  -1.890056 -1.202613  1.976731
      ESP Fit Center  601 is at  -1.846741 -1.448266  1.976731
      ESP Fit Center  602 is at  -1.722019 -1.664290  1.976731
      ESP Fit Center  603 is at  -1.530935 -1.824629  1.976731
      ESP Fit Center  604 is at  -1.296535 -1.909944  1.976731
      ESP Fit Center  605 is at  -1.047092 -1.909944  1.976731
      ESP Fit Center  606 is at  -0.812693 -1.824629  1.976731
      ESP Fit Center  607 is at  -0.621608 -1.664290  1.976731
      ESP Fit Center  608 is at  -0.496887 -1.448266  1.976731
      ESP Fit Center  609 is at  -0.505381 -0.536180  1.880005
      ESP Fit Center  610 is at  -0.700575 -0.386403  1.880005
      ESP Fit Center  611 is at  -0.927883 -0.292249  1.880005
      ESP Fit Center  612 is at  -2.082178 -0.958682  1.880005
      ESP Fit Center  613 is at  -2.114292 -1.202613  1.880005
      ESP Fit Center  614 is at  -2.082178 -1.446544  1.880005
      ESP Fit Center  615 is at  -1.988024 -1.673852  1.880005
      ESP Fit Center  616 is at  -1.838247 -1.869046  1.880005
      ESP Fit Center  617 is at  -1.643053 -2.018823  1.880005
      ESP Fit Center  618 is at  -1.415745 -2.112977  1.880005
      ESP Fit Center  619 is at  -1.171814 -2.145091  1.880005
      ESP Fit Center  620 is at  -0.927883 -2.112977  1.880005
      ESP Fit Center  621 is at  -0.700575 -2.018823  1.880005
      ESP Fit Center  622 is at  -0.505381 -1.869046  1.880005
      ESP Fit Center  623 is at  -0.631285 -0.183068  1.757900
      ESP Fit Center  624 is at  -2.319018 -1.077847  1.757900
      ESP Fit Center  625 is at  -2.319018 -1.327379  1.757900
      ESP Fit Center  626 is at  -2.265376 -1.571077  1.757900
      ESP Fit Center  627 is at  -2.160600 -1.797546  1.757900
      ESP Fit Center  628 is at  -2.009590 -1.996197  1.757900
      ESP Fit Center  629 is at  -1.819406 -2.157740  1.757900
      ESP Fit Center  630 is at  -1.598942 -2.274623  1.757900
      ESP Fit Center  631 is at  -1.358505 -2.341380  1.757900
      ESP Fit Center  632 is at  -1.109339 -2.354890  1.757900
      ESP Fit Center  633 is at  -0.863095 -2.314520  1.757900
      ESP Fit Center  634 is at  -0.631285 -2.222158  1.757900
      ESP Fit Center  635 is at  -2.521668 -1.202613  1.612069
      ESP Fit Center  636 is at  -2.498684 -1.450648  1.612069
      ESP Fit Center  637 is at  -2.430515 -1.690237  1.612069
      ESP Fit Center  638 is at  -2.319483 -1.913220  1.612069
      ESP Fit Center  639 is at  -1.296363 -2.546709  1.612069
      ESP Fit Center  640 is at  -1.047265 -2.546709  1.612069
      ESP Fit Center  641 is at  -0.802409 -2.500937  1.612069
      ESP Fit Center  642 is at  -0.570132 -2.410953  1.612069
      ESP Fit Center  643 is at  -2.694345 -1.325525  1.444483
      ESP Fit Center  644 is at  -2.654913 -1.568164  1.444483
      ESP Fit Center  645 is at  -2.577068 -1.801336  1.444483
      ESP Fit Center  646 is at  -0.987696 -2.718961  1.444483
      ESP Fit Center  647 is at  -0.746841 -2.669790  1.444483
      ESP Fit Center  648 is at  -0.516993 -2.582620  1.444483
      ESP Fit Center  649 is at  -2.815973 -1.568865  1.257409
      ESP Fit Center  650 is at  -0.745758 -2.832299  1.257409
      ESP Fit Center  651 is at  -0.513014 -2.752898  1.257409
      ESP Fit Center  652 is at  -0.562784 -2.916259  1.053376
      ESP Fit Center  653 is at  -3.064509 -1.571215  0.835144
      ESP Fit Center  654 is at  -3.064509 -1.571215 -0.828391
      ESP Fit Center  655 is at  -0.562784 -2.916259 -1.046624
      ESP Fit Center  656 is at  -2.815973 -1.568865 -1.250657
      ESP Fit Center  657 is at  -0.745758 -2.832299 -1.250657
      ESP Fit Center  658 is at  -0.513014 -2.752898 -1.250657
      ESP Fit Center  659 is at  -2.694345 -1.325525 -1.437731
      ESP Fit Center  660 is at  -2.654913 -1.568164 -1.437731
      ESP Fit Center  661 is at  -2.577068 -1.801336 -1.437731
      ESP Fit Center  662 is at  -0.987696 -2.718961 -1.437731
      ESP Fit Center  663 is at  -0.746841 -2.669790 -1.437731
      ESP Fit Center  664 is at  -0.516993 -2.582620 -1.437731
      ESP Fit Center  665 is at  -2.521668 -1.202613 -1.605317
      ESP Fit Center  666 is at  -2.498684 -1.450648 -1.605317
      ESP Fit Center  667 is at  -2.430515 -1.690237 -1.605317
      ESP Fit Center  668 is at  -2.319483 -1.913220 -1.605317
      ESP Fit Center  669 is at  -1.296363 -2.546709 -1.605317
      ESP Fit Center  670 is at  -1.047265 -2.546709 -1.605317
      ESP Fit Center  671 is at  -0.802409 -2.500937 -1.605317
      ESP Fit Center  672 is at  -0.570132 -2.410953 -1.605317
      ESP Fit Center  673 is at  -0.631285 -0.183068 -1.751148
      ESP Fit Center  674 is at  -2.319018 -1.077847 -1.751148
      ESP Fit Center  675 is at  -2.319018 -1.327379 -1.751148
      ESP Fit Center  676 is at  -2.265376 -1.571077 -1.751148
      ESP Fit Center  677 is at  -2.160600 -1.797546 -1.751148
      ESP Fit Center  678 is at  -2.009590 -1.996197 -1.751148
      ESP Fit Center  679 is at  -1.819406 -2.157740 -1.751148
      ESP Fit Center  680 is at  -1.598942 -2.274623 -1.751148
      ESP Fit Center  681 is at  -1.358505 -2.341380 -1.751148
      ESP Fit Center  682 is at  -1.109339 -2.354890 -1.751148
      ESP Fit Center  683 is at  -0.863095 -2.314520 -1.751148
      ESP Fit Center  684 is at  -0.631285 -2.222158 -1.751148
      ESP Fit Center  685 is at  -0.505381 -0.536180 -1.873253
      ESP Fit Center  686 is at  -0.700575 -0.386403 -1.873253
      ESP Fit Center  687 is at  -0.927883 -0.292249 -1.873253
      ESP Fit Center  688 is at  -2.082178 -0.958682 -1.873253
      ESP Fit Center  689 is at  -2.114292 -1.202613 -1.873253
      ESP Fit Center  690 is at  -2.082178 -1.446544 -1.873253
      ESP Fit Center  691 is at  -1.988024 -1.673852 -1.873253
      ESP Fit Center  692 is at  -1.838247 -1.869046 -1.873253
      ESP Fit Center  693 is at  -1.643053 -2.018823 -1.873253
      ESP Fit Center  694 is at  -1.415745 -2.112977 -1.873253
      ESP Fit Center  695 is at  -1.171814 -2.145091 -1.873253
      ESP Fit Center  696 is at  -0.927883 -2.112977 -1.873253
      ESP Fit Center  697 is at  -0.700575 -2.018823 -1.873253
      ESP Fit Center  698 is at  -0.505381 -1.869046 -1.873253
      ESP Fit Center  699 is at  -0.496887 -0.956960 -1.969978
      ESP Fit Center  700 is at  -0.621608 -0.740936 -1.969978
      ESP Fit Center  701 is at  -0.812693 -0.580597 -1.969978
      ESP Fit Center  702 is at  -1.047092 -0.495283 -1.969978
      ESP Fit Center  703 is at  -1.296535 -0.495283 -1.969978
      ESP Fit Center  704 is at  -1.722019 -0.740936 -1.969978
      ESP Fit Center  705 is at  -1.846741 -0.956960 -1.969978
      ESP Fit Center  706 is at  -1.890056 -1.202613 -1.969978
      ESP Fit Center  707 is at  -1.846741 -1.448266 -1.969978
      ESP Fit Center  708 is at  -1.722019 -1.664290 -1.969978
      ESP Fit Center  709 is at  -1.530935 -1.824629 -1.969978
      ESP Fit Center  710 is at  -1.296535 -1.909944 -1.969978
      ESP Fit Center  711 is at  -1.047092 -1.909944 -1.969978
      ESP Fit Center  712 is at  -0.812693 -1.824629 -1.969978
      ESP Fit Center  713 is at  -0.621608 -1.664290 -1.969978
      ESP Fit Center  714 is at  -0.496887 -1.448266 -1.969978
      ESP Fit Center  715 is at  -0.687521 -1.202613 -2.040018
      ESP Fit Center  716 is at  -0.752404 -0.960466 -2.040018
      ESP Fit Center  717 is at  -0.929667 -0.783203 -2.040018
      ESP Fit Center  718 is at  -1.171814 -0.718320 -2.040018
      ESP Fit Center  719 is at  -1.413961 -0.783203 -2.040018
      ESP Fit Center  720 is at  -1.591224 -0.960466 -2.040018
      ESP Fit Center  721 is at  -1.656107 -1.202613 -2.040018
      ESP Fit Center  722 is at  -1.591224 -1.444760 -2.040018
      ESP Fit Center  723 is at  -1.413961 -1.622023 -2.040018
      ESP Fit Center  724 is at  -1.171814 -1.686906 -2.040018
      ESP Fit Center  725 is at  -0.929667 -1.622023 -2.040018
      ESP Fit Center  726 is at  -0.752404 -1.444760 -2.040018
      ESP Fit Center  727 is at  -0.928019 -1.202613 -2.082425
      ESP Fit Center  728 is at  -1.049916 -0.991480 -2.082425
      ESP Fit Center  729 is at  -1.293711 -0.991480 -2.082425
      ESP Fit Center  730 is at  -1.415609 -1.202613 -2.082425
      ESP Fit Center  731 is at  -1.293711 -1.413746 -2.082425
      ESP Fit Center  732 is at  -1.049916 -1.413746 -2.082425
      ESP Fit Center  733 is at  -1.171814 -1.202613 -2.096624
      ESP Fit Center  734 is at  -1.881692 -0.000004  2.108330
      ESP Fit Center  735 is at  -1.637897 -0.000004  2.094131
      ESP Fit Center  736 is at  -1.759794  0.211129  2.094131
      ESP Fit Center  737 is at  -2.003589  0.211129  2.094131
      ESP Fit Center  738 is at  -2.125487 -0.000004  2.094131
      ESP Fit Center  739 is at  -2.003589 -0.211137  2.094131
      ESP Fit Center  740 is at  -1.759794 -0.211137  2.094131
      ESP Fit Center  741 is at  -1.397399 -0.000004  2.051724
      ESP Fit Center  742 is at  -1.462282  0.242143  2.051724
      ESP Fit Center  743 is at  -1.639545  0.419406  2.051724
      ESP Fit Center  744 is at  -1.881692  0.484289  2.051724
      ESP Fit Center  745 is at  -2.123839  0.419406  2.051724
      ESP Fit Center  746 is at  -2.301102  0.242143  2.051724
      ESP Fit Center  747 is at  -2.365985 -0.000004  2.051724
      ESP Fit Center  748 is at  -2.301102 -0.242151  2.051724
      ESP Fit Center  749 is at  -2.123839 -0.419414  2.051724
      ESP Fit Center  750 is at  -1.881692 -0.484297  2.051724
      ESP Fit Center  751 is at  -1.639545 -0.419414  2.051724
      ESP Fit Center  752 is at  -1.462282 -0.242151  2.051724
      ESP Fit Center  753 is at  -1.163450 -0.000004  1.981685
      ESP Fit Center  754 is at  -1.206765  0.245649  1.981685
      ESP Fit Center  755 is at  -1.331486  0.461673  1.981685
      ESP Fit Center  756 is at  -1.756970  0.707326  1.981685
      ESP Fit Center  757 is at  -2.006413  0.707326  1.981685
      ESP Fit Center  758 is at  -2.240813  0.622012  1.981685
      ESP Fit Center  759 is at  -2.431897  0.461673  1.981685
      ESP Fit Center  760 is at  -2.556619  0.245649  1.981685
      ESP Fit Center  761 is at  -2.599934 -0.000004  1.981685
      ESP Fit Center  762 is at  -2.556619 -0.245657  1.981685
      ESP Fit Center  763 is at  -2.431897 -0.461681  1.981685
      ESP Fit Center  764 is at  -2.240813 -0.622020  1.981685
      ESP Fit Center  765 is at  -2.006413 -0.707335  1.981685
      ESP Fit Center  766 is at  -1.756970 -0.707335  1.981685
      ESP Fit Center  767 is at  -1.331486 -0.461681  1.981685
      ESP Fit Center  768 is at  -1.206765 -0.245657  1.981685
      ESP Fit Center  769 is at  -0.939214 -0.000004  1.884959
      ESP Fit Center  770 is at  -0.971328  0.243927  1.884959
      ESP Fit Center  771 is at  -2.125623  0.910360  1.884959
      ESP Fit Center  772 is at  -2.352931  0.816206  1.884959
      ESP Fit Center  773 is at  -2.548125  0.666429  1.884959
      ESP Fit Center  774 is at  -2.697902  0.471235  1.884959
      ESP Fit Center  775 is at  -2.792056  0.243927  1.884959
      ESP Fit Center  776 is at  -2.824170 -0.000004  1.884959
      ESP Fit Center  777 is at  -2.792056 -0.243935  1.884959
      ESP Fit Center  778 is at  -2.697902 -0.471243  1.884959
      ESP Fit Center  779 is at  -2.548125 -0.666437  1.884959
      ESP Fit Center  780 is at  -2.352931 -0.816214  1.884959
      ESP Fit Center  781 is at  -2.125623 -0.910368  1.884959
      ESP Fit Center  782 is at  -0.971328 -0.243935  1.884959
      ESP Fit Center  783 is at  -0.727723 -0.000004  1.762854
      ESP Fit Center  784 is at  -2.529284  0.955123  1.762854
      ESP Fit Center  785 is at  -2.719468  0.793580  1.762854
      ESP Fit Center  786 is at  -2.870478  0.594929  1.762854
      ESP Fit Center  787 is at  -2.975254  0.368460  1.762854
      ESP Fit Center  788 is at  -3.028896  0.124762  1.762854
      ESP Fit Center  789 is at  -3.028896 -0.124770  1.762854
      ESP Fit Center  790 is at  -2.975254 -0.368468  1.762854
      ESP Fit Center  791 is at  -2.870478 -0.594937  1.762854
      ESP Fit Center  792 is at  -2.719468 -0.793588  1.762854
      ESP Fit Center  793 is at  -2.529284 -0.955131  1.762854
      ESP Fit Center  794 is at  -0.531838 -0.000004  1.617023
      ESP Fit Center  795 is at  -2.695161  1.077203  1.617023
      ESP Fit Center  796 is at  -2.879246  0.909387  1.617023
      ESP Fit Center  797 is at  -3.029361  0.710602  1.617023
      ESP Fit Center  798 is at  -3.140393  0.487619  1.617023
      ESP Fit Center  799 is at  -3.140393 -0.487628  1.617023
      ESP Fit Center  800 is at  -3.029361 -0.710611  1.617023
      ESP Fit Center  801 is at  -2.879246 -0.909395  1.617023
      ESP Fit Center  802 is at  -2.695161 -1.077211  1.617023
      ESP Fit Center  803 is at  -2.847743  1.183193  1.449437
      ESP Fit Center  804 is at  -3.025031  1.012906  1.449437
      ESP Fit Center  805 is at  -3.025031 -1.012914  1.449437
      ESP Fit Center  806 is at  -2.847743 -1.183201  1.449437
      ESP Fit Center  807 is at  -2.861809  1.369949  1.262363
      ESP Fit Center  808 is at  -3.050831  1.212644  1.262363
      ESP Fit Center  809 is at  -3.050831 -1.212652  1.262363
      ESP Fit Center  810 is at  -2.861809 -1.369957  1.262363
      ESP Fit Center  811 is at  -3.123019  1.329133  1.058330
      ESP Fit Center  812 is at  -3.123019 -1.329141  1.058330
      ESP Fit Center  813 is at  -3.123019  1.329133 -1.041670
      ESP Fit Center  814 is at  -3.123019 -1.329141 -1.041670
      ESP Fit Center  815 is at  -2.861809  1.369949 -1.245703
      ESP Fit Center  816 is at  -3.050831  1.212644 -1.245703
      ESP Fit Center  817 is at  -3.050831 -1.212652 -1.245703
      ESP Fit Center  818 is at  -2.861809 -1.369957 -1.245703
      ESP Fit Center  819 is at  -2.847743  1.183193 -1.432777
      ESP Fit Center  820 is at  -3.025031  1.012906 -1.432777
      ESP Fit Center  821 is at  -3.025031 -1.012914 -1.432777
      ESP Fit Center  822 is at  -2.847743 -1.183201 -1.432777
      ESP Fit Center  823 is at  -0.531838 -0.000004 -1.600363
      ESP Fit Center  824 is at  -2.695161  1.077203 -1.600363
      ESP Fit Center  825 is at  -2.879246  0.909387 -1.600363
      ESP Fit Center  826 is at  -3.029361  0.710602 -1.600363
      ESP Fit Center  827 is at  -3.140393  0.487619 -1.600363
      ESP Fit Center  828 is at  -3.140393 -0.487628 -1.600363
      ESP Fit Center  829 is at  -3.029361 -0.710611 -1.600363
      ESP Fit Center  830 is at  -2.879246 -0.909395 -1.600363
      ESP Fit Center  831 is at  -2.695161 -1.077211 -1.600363
      ESP Fit Center  832 is at  -0.727723 -0.000004 -1.746194
      ESP Fit Center  833 is at  -2.529284  0.955123 -1.746194
      ESP Fit Center  834 is at  -2.719468  0.793580 -1.746194
      ESP Fit Center  835 is at  -2.870478  0.594929 -1.746194
      ESP Fit Center  836 is at  -2.975254  0.368460 -1.746194
      ESP Fit Center  837 is at  -3.028896  0.124762 -1.746194
      ESP Fit Center  838 is at  -3.028896 -0.124770 -1.746194
      ESP Fit Center  839 is at  -2.975254 -0.368468 -1.746194
      ESP Fit Center  840 is at  -2.870478 -0.594937 -1.746194
      ESP Fit Center  841 is at  -2.719468 -0.793588 -1.746194
      ESP Fit Center  842 is at  -2.529284 -0.955131 -1.746194
      ESP Fit Center  843 is at  -0.939214 -0.000004 -1.868299
      ESP Fit Center  844 is at  -0.971328  0.243927 -1.868299
      ESP Fit Center  845 is at  -2.125623  0.910360 -1.868299
[...]
 **** Fit      -0.006093
 **** Fit      -0.006016
 **** Fit      -0.005995
 **** Fit      -0.006019
 **** Fit      -0.006076
 **** Fit      -0.006159
 **** Fit      -0.006258
 **** Fit      -0.006363
 **** Fit      -0.006468
 **** Fit      -0.006565
 **** Fit      -0.006647
 **** Fit      -0.006709
 **** Fit      -0.006748
 **** Fit      -0.007712
 **** Fit      -0.007700
 **** Fit      -0.007665
 **** Fit      -0.007609
 **** Fit      -0.007537
 **** Fit      -0.007455
 **** Fit      -0.007370
 **** Fit      -0.007290
 **** Fit      -0.007225
 **** Fit      -0.007186
 **** Fit      -0.007181
 **** Fit      -0.007224
 **** Fit      -0.007327
 **** Fit      -0.007503
 **** Fit      -0.007767
 **** Fit      -0.008139
 **** Fit      -0.008636
 **** Fit      -0.008636
 **** Fit      -0.008138
 **** Fit      -0.007767
 **** Fit      -0.007503
 **** Fit      -0.007327
 **** Fit      -0.007224
 **** Fit      -0.007181
 **** Fit      -0.007185
 **** Fit      -0.007225
 **** Fit      -0.007290
 **** Fit      -0.007369
 **** Fit      -0.007455
 **** Fit      -0.007537
 **** Fit      -0.007609
 **** Fit      -0.007665
 **** Fit      -0.007700
 **** Fit      -0.008618
 **** Fit      -0.008608
 **** Fit      -0.008578
 **** Fit      -0.008532
 **** Fit      -0.008475
 **** Fit      -0.008412
 **** Fit      -0.008353
 **** Fit      -0.008305
 **** Fit      -0.008281
 **** Fit      -0.008289
 **** Fit      -0.008344
 **** Fit      -0.008458
 **** Fit      -0.008644
 **** Fit      -0.008919
 **** Fit      -0.009300
 **** Fit      -0.009804
 **** Fit      -0.009804
 **** Fit      -0.009300
 **** Fit      -0.008919
 **** Fit      -0.008644
 **** Fit      -0.008457
 **** Fit      -0.008344
 **** Fit      -0.008289
 **** Fit      -0.008280
 **** Fit      -0.008305
 **** Fit      -0.008353
 **** Fit      -0.008412
 **** Fit      -0.008475
 **** Fit      -0.008532
 **** Fit      -0.008578
 **** Fit      -0.008608
 **** Fit      -0.009477
 **** Fit      -0.009468
 **** Fit      -0.009444
 **** Fit      -0.009408
 **** Fit      -0.009365
 **** Fit      -0.009325
 **** Fit      -0.009298
 **** Fit      -0.009295
 **** Fit      -0.009329
 **** Fit      -0.009414
 **** Fit      -0.009566
 **** Fit      -0.009801
 **** Fit      -0.010137
 **** Fit      -0.010590
 **** Fit      -0.011177
 **** Fit      -0.011177
 **** Fit      -0.010590
 **** Fit      -0.010137
 **** Fit      -0.009801
 **** Fit      -0.009566
 **** Fit      -0.009414
 **** Fit      -0.009329
 **** Fit      -0.009295
 **** Fit      -0.009298
 **** Fit      -0.009325
 **** Fit      -0.009365
 **** Fit      -0.009407
 **** Fit      -0.009444
 **** Fit      -0.009468
 **** Fit      -0.010287
 **** Fit      -0.010281
 **** Fit      -0.010264
 **** Fit      -0.010242
 **** Fit      -0.010221
 **** Fit      -0.010212
 **** Fit      -0.010227
 **** Fit      -0.010279
 **** Fit      -0.010384
 **** Fit      -0.010559
 **** Fit      -0.010820
 **** Fit      -0.011186
 **** Fit      -0.011671
 **** Fit      -0.012290
 **** Fit      -0.012289
 **** Fit      -0.011671
 **** Fit      -0.011186
 **** Fit      -0.010820
 **** Fit      -0.010559
 **** Fit      -0.010384
 **** Fit      -0.010279
 **** Fit      -0.010227
 **** Fit      -0.010212
 **** Fit      -0.010221
 **** Fit      -0.010242
 **** Fit      -0.010264
 **** Fit      -0.010281
 **** Fit      -0.011047
 **** Fit      -0.011044
 **** Fit      -0.011038
 **** Fit      -0.011034
 **** Fit      -0.011044
 **** Fit      -0.011079
 **** Fit      -0.011156
 **** Fit      -0.011293
 **** Fit      -0.011508
 **** Fit      -0.011820
 **** Fit      -0.012247
 **** Fit      -0.012802
 **** Fit      -0.013491
 **** Fit      -0.014307
 **** Fit      -0.014307
 **** Fit      -0.013490
 **** Fit      -0.012802
 **** Fit      -0.012247
 **** Fit      -0.011820
 **** Fit      -0.011508
 **** Fit      -0.011293
 **** Fit      -0.011156
 **** Fit      -0.011079
 **** Fit      -0.011044
 **** Fit      -0.011034
 **** Fit      -0.011038
 **** Fit      -0.011044
 **** Fit      -0.011758
 **** Fit      -0.011760
 **** Fit      -0.011768
 **** Fit      -0.011791
 **** Fit      -0.011840
 **** Fit      -0.011932
 **** Fit      -0.012085
 **** Fit      -0.012319
 **** Fit      -0.012653
 **** Fit      -0.013102
 **** Fit      -0.013674
 **** Fit      -0.014366
 **** Fit      -0.015158
 **** Fit      -0.015158
 **** Fit      -0.014366
 **** Fit      -0.013674
 **** Fit      -0.013102
 **** Fit      -0.012653
 **** Fit      -0.012319
 **** Fit      -0.012085
 **** Fit      -0.011932
 **** Fit      -0.011840
 **** Fit      -0.011791
 **** Fit      -0.011768
 **** Fit      -0.011760
 **** Fit      -0.012422
 **** Fit      -0.012431
 **** Fit      -0.012461
 **** Fit      -0.012524
 **** Fit      -0.012636
 **** Fit      -0.012819
 **** Fit      -0.013093
 **** Fit      -0.013478
 **** Fit      -0.013985
 **** Fit      -0.014610
 **** Fit      -0.015330
 **** Fit      -0.016097
 **** Fit      -0.016097
 **** Fit      -0.015330
 **** Fit      -0.014610
 **** Fit      -0.013985
 **** Fit      -0.013478
 **** Fit      -0.013093
 **** Fit      -0.012818
 **** Fit      -0.012636
 **** Fit      -0.012524
 **** Fit      -0.012461
 **** Fit      -0.012431
 **** Fit      -0.013044
 **** Fit      -0.013064
 **** Fit      -0.013129
 **** Fit      -0.013255
 **** Fit      -0.013464
 **** Fit      -0.013781
 **** Fit      -0.014220
 **** Fit      -0.014779
 **** Fit      -0.015432
 **** Fit      -0.016118
 **** Fit      -0.016752
 **** Fit      -0.016752
 **** Fit      -0.016118
 **** Fit      -0.015432
 **** Fit      -0.014779
 **** Fit      -0.014219
 **** Fit      -0.013781
 **** Fit      -0.013464
 **** Fit      -0.013255
 **** Fit      -0.013129
 **** Fit      -0.013064
 **** Fit      -0.013629
 **** Fit      -0.013672
 **** Fit      -0.013811
 **** Fit      -0.014073
 **** Fit      -0.014480
 **** Fit      -0.015030
 **** Fit      -0.015668
 **** Fit      -0.016284
 **** Fit      -0.016735
 **** Fit      -0.016901
 **** Fit      -0.016735
 **** Fit      -0.016284
 **** Fit      -0.015668
 **** Fit      -0.015030
 **** Fit      -0.014480
 **** Fit      -0.014073
 **** Fit      -0.013811
 **** Fit      -0.013672
 **** Fit      -0.014183
 **** Fit      -0.014271
 **** Fit      -0.014549
 **** Fit      -0.015018
 **** Fit      -0.015603
 **** Fit      -0.016112
 **** Fit      -0.016317
 **** Fit      -0.016112
 **** Fit      -0.015603
 **** Fit      -0.015018
 **** Fit      -0.014548
 **** Fit      -0.014271
 **** Fit      -0.014717
 **** Fit      -0.014937
 **** Fit      -0.015462
 **** Fit      -0.015769
 **** Fit      -0.015462
 **** Fit      -0.014937
 **** Fit      -0.015241
 **** Fit       0.009745
 **** Fit       0.009344
 **** Fit       0.008815
 **** Fit       0.010607
 **** Fit       0.010403
 **** Fit       0.010137
 **** Fit       0.009793
 **** Fit       0.009348
 **** Fit       0.008780
 **** Fit       0.008064
 **** Fit       0.011032
 **** Fit       0.010877
 **** Fit       0.010686
 **** Fit       0.010443
 **** Fit       0.010133
 **** Fit       0.009738
 **** Fit       0.009236
 **** Fit       0.008603
 **** Fit       0.007812
 **** Fit       0.011352
 **** Fit       0.011232
 **** Fit       0.011092
 **** Fit       0.010922
 **** Fit       0.010707
 **** Fit       0.010436
 **** Fit       0.010092
 **** Fit       0.009657
 **** Fit       0.009110
 **** Fit       0.008424
 **** Fit       0.011676
 **** Fit       0.011575
 **** Fit       0.011479
 **** Fit       0.011377
 **** Fit       0.011258
 **** Fit       0.011112
 **** Fit       0.010928
 **** Fit       0.010697
 **** Fit       0.010405
 **** Fit       0.010037
 **** Fit       0.009576
 **** Fit       0.008996
 **** Fit       0.011796
 **** Fit       0.011706
 **** Fit       0.011628
 **** Fit       0.011553
 **** Fit       0.011471
 **** Fit       0.011374
 **** Fit       0.011254
 **** Fit       0.011103
 **** Fit       0.010912
 **** Fit       0.010671
 **** Fit       0.010369
 **** Fit       0.009991
 **** Fit       0.009516
 **** Fit       0.011823
 **** Fit       0.011742
 **** Fit       0.011679
 **** Fit       0.011624
 **** Fit       0.011570
 **** Fit       0.011507
 **** Fit       0.011430
 **** Fit       0.011332
 **** Fit       0.011206
 **** Fit       0.011045
 **** Fit       0.010843
 **** Fit       0.010588
 **** Fit       0.010269
 **** Fit       0.009867
 **** Fit       0.011763
 **** Fit       0.011691
 **** Fit       0.011641
 **** Fit       0.011604
 **** Fit       0.011572
 **** Fit       0.011538
 **** Fit       0.011495
 **** Fit       0.011439
 **** Fit       0.011364
 **** Fit       0.011265
 **** Fit       0.011138
 **** Fit       0.010976
 **** Fit       0.010773
 **** Fit       0.010518
 **** Fit       0.010197
 **** Fit       0.011611
 **** Fit       0.011550
 **** Fit       0.011514
 **** Fit       0.011494
 **** Fit       0.011481
 **** Fit       0.011470
 **** Fit       0.011454
 **** Fit       0.011430
 **** Fit       0.011392
 **** Fit       0.011337
 **** Fit       0.011263
 **** Fit       0.011164
 **** Fit       0.011038
 **** Fit       0.010879
 **** Fit       0.010680
 **** Fit       0.011322
 **** Fit       0.011301
 **** Fit       0.011297
 **** Fit       0.011303
 **** Fit       0.011312
 **** Fit       0.011321
 **** Fit       0.011324
 **** Fit       0.011317
 **** Fit       0.011299
 **** Fit       0.011268
 **** Fit       0.011220
 **** Fit       0.011155
 **** Fit       0.011071
 **** Fit       0.010964
 **** Fit       0.011005
 **** Fit       0.011000
 **** Fit       0.011014
 **** Fit       0.011039
 **** Fit       0.011069
 **** Fit       0.011099
 **** Fit       0.011126
 **** Fit       0.011146
 **** Fit       0.011157
 **** Fit       0.011158
 **** Fit       0.011149
 **** Fit       0.011128
 **** Fit       0.011098
 **** Fit       0.011059
 **** Fit       0.011010
 **** Fit       0.010600
 **** Fit       0.010613
 **** Fit       0.010646
 **** Fit       0.010690
 **** Fit       0.010739
 **** Fit       0.010791
 **** Fit       0.010839
 **** Fit       0.010883
 **** Fit       0.010920
 **** Fit       0.010950
 **** Fit       0.010972
 **** Fit       0.010989
 **** Fit       0.011003
 **** Fit       0.011016
 **** Fit       0.011033
 **** Fit       0.010104
 **** Fit       0.010138
 **** Fit       0.010190
 **** Fit       0.010254
 **** Fit       0.010323
 **** Fit       0.010394
 **** Fit       0.010463
 **** Fit       0.010529
 **** Fit       0.010588
 **** Fit       0.010643
 **** Fit       0.010692
 **** Fit       0.010739
 **** Fit       0.010786
 **** Fit       0.010839
 **** Fit       0.010904
 **** Fit       0.009576
 **** Fit       0.009651
 **** Fit       0.009737
 **** Fit       0.009827
 **** Fit       0.009919
 **** Fit       0.010008
 **** Fit       0.010093
 **** Fit       0.010174
 **** Fit       0.010249
 **** Fit       0.010321
 **** Fit       0.010393
 **** Fit       0.010468
 **** Fit       0.010552
 **** Fit       0.010655
 **** Fit       0.008928
 **** Fit       0.009030
 **** Fit       0.009140
 **** Fit       0.009254
 **** Fit       0.009367
 **** Fit       0.009477
 **** Fit       0.009582
 **** Fit       0.009682
 **** Fit       0.009777
 **** Fit       0.009870
 **** Fit       0.009963
 **** Fit       0.010062
 **** Fit       0.010176
 **** Fit       0.010314
 **** Fit       0.008322
 **** Fit       0.008458
 **** Fit       0.008596
 **** Fit       0.008731
 **** Fit       0.008861
 **** Fit       0.008985
 **** Fit       0.009103
 **** Fit       0.009216
 **** Fit       0.009325
 **** Fit       0.009437
 **** Fit       0.009555
 **** Fit       0.009690
 **** Fit       0.009854
 **** Fit       0.007687
 **** Fit       0.007849
 **** Fit       0.008006
 **** Fit       0.008156
 **** Fit       0.008298
 **** Fit       0.008432
 **** Fit       0.008560
 **** Fit       0.008685
 **** Fit       0.008810
 **** Fit       0.008942
 **** Fit       0.009091
 **** Fit       0.009269
 **** Fit       0.006839
 **** Fit       0.007028
 **** Fit       0.007208
 **** Fit       0.007378
 **** Fit       0.007538
 **** Fit       0.007688
 **** Fit       0.007830
 **** Fit       0.007966
 **** Fit       0.008102
 **** Fit       0.008245
 **** Fit       0.008406
 **** Fit       0.006137
 **** Fit       0.006341
 **** Fit       0.006532
 **** Fit       0.006709
 **** Fit       0.006872
 **** Fit       0.007024
 **** Fit       0.007170
 **** Fit       0.007314
 **** Fit       0.007464
 **** Fit       0.007633
 **** Fit       0.005595
 **** Fit       0.005785
 **** Fit       0.005959
 **** Fit       0.006117
 **** Fit       0.006265
 **** Fit       0.006409
 **** Fit       0.006557
 **** Fit       0.004941
 **** Fit       0.005099
 **** Fit       0.005242
 **** Fit       0.008815
 **** Fit       0.009344
 **** Fit       0.009745
 **** Fit       0.008064
 **** Fit       0.008781
 **** Fit       0.009348
 **** Fit       0.009793
 **** Fit       0.010137
 **** Fit       0.010403
 **** Fit       0.010607
 **** Fit       0.007812
 **** Fit       0.008603
 **** Fit       0.009236
 **** Fit       0.009738
 **** Fit       0.010133
 **** Fit       0.010443
 **** Fit       0.010686
 **** Fit       0.010877
 **** Fit       0.011032
 **** Fit       0.008425
 **** Fit       0.009110
 **** Fit       0.009657
 **** Fit       0.010092
 **** Fit       0.010436
 **** Fit       0.010708
 **** Fit       0.010922
 **** Fit       0.011092
 **** Fit       0.011232
 **** Fit       0.011352
 **** Fit       0.008996
 **** Fit       0.009576
 **** Fit       0.010037
 **** Fit       0.010405
 **** Fit       0.010697
 **** Fit       0.010928
 **** Fit       0.011112
 **** Fit       0.011258
 **** Fit       0.011377
 **** Fit       0.011479
 **** Fit       0.011575
 **** Fit       0.011676
 **** Fit       0.009516
 **** Fit       0.009991
 **** Fit       0.010369
 **** Fit       0.010671
 **** Fit       0.010912
 **** Fit       0.011103
 **** Fit       0.011255
 **** Fit       0.011375
 **** Fit       0.011471
 **** Fit       0.011553
 **** Fit       0.011628
 **** Fit       0.011706
 **** Fit       0.011796
 **** Fit       0.009867
 **** Fit       0.010269
 **** Fit       0.010588
 **** Fit       0.010843
 **** Fit       0.011045
 **** Fit       0.011206
 **** Fit       0.011332
 **** Fit       0.011430
 **** Fit       0.011507
 **** Fit       0.011570
 **** Fit       0.011624
 **** Fit       0.011679
 **** Fit       0.011742
 **** Fit       0.011823
 **** Fit       0.010197
 **** Fit       0.010518
 **** Fit       0.010773
 **** Fit       0.010976
 **** Fit       0.011138
 **** Fit       0.011265
 **** Fit       0.011364
 **** Fit       0.011439
 **** Fit       0.011495
 **** Fit       0.011538
 **** Fit       0.011572
 **** Fit       0.011604
 **** Fit       0.011641
 **** Fit       0.011691
 **** Fit       0.011763
 **** Fit       0.010680
 **** Fit       0.010880
 **** Fit       0.011039
 **** Fit       0.011164
 **** Fit       0.011263
 **** Fit       0.011337
 **** Fit       0.011392
 **** Fit       0.011430
 **** Fit       0.011454
 **** Fit       0.011470
 **** Fit       0.011481
 **** Fit       0.011494
 **** Fit       0.011514
 **** Fit       0.011550
 **** Fit       0.011611
 **** Fit       0.010964
 **** Fit       0.011071
 **** Fit       0.011155
 **** Fit       0.011220
 **** Fit       0.011268
 **** Fit       0.011300
 **** Fit       0.011318
 **** Fit       0.011324
 **** Fit       0.011321
 **** Fit       0.011313
 **** Fit       0.011303
 **** Fit       0.011297
 **** Fit       0.011301
 **** Fit       0.011322
 **** Fit       0.011010
 **** Fit       0.011059
 **** Fit       0.011098
 **** Fit       0.011129
 **** Fit       0.011149
 **** Fit       0.011158
 **** Fit       0.011157
 **** Fit       0.011146
 **** Fit       0.011126
 **** Fit       0.011099
 **** Fit       0.011069
 **** Fit       0.011039
 **** Fit       0.011014
 **** Fit       0.011000
 **** Fit       0.011005
 **** Fit       0.011033
 **** Fit       0.011016
 **** Fit       0.011003
 **** Fit       0.010989
 **** Fit       0.010972
 **** Fit       0.010950
 **** Fit       0.010920
 **** Fit       0.010883
 **** Fit       0.010839
 **** Fit       0.010791
 **** Fit       0.010740
 **** Fit       0.010690
 **** Fit       0.010646
 **** Fit       0.010613
 **** Fit       0.010600
 **** Fit       0.010904
 **** Fit       0.010839
 **** Fit       0.010786
 **** Fit       0.010739
 **** Fit       0.010692
 **** Fit       0.010643
 **** Fit       0.010589
 **** Fit       0.010529
 **** Fit       0.010464
 **** Fit       0.010394
 **** Fit       0.010323
 **** Fit       0.010254
 **** Fit       0.010190
 **** Fit       0.010138
 **** Fit       0.010104
 **** Fit       0.010655
 **** Fit       0.010552
 **** Fit       0.010468
 **** Fit       0.010393
 **** Fit       0.010322
 **** Fit       0.010249
 **** Fit       0.010174
 **** Fit       0.010093
 **** Fit       0.010008
 **** Fit       0.009919
 **** Fit       0.009827
 **** Fit       0.009737
 **** Fit       0.009651
 **** Fit       0.009576
 **** Fit       0.010314
 **** Fit       0.010176
 **** Fit       0.010062
 **** Fit       0.009963
 **** Fit       0.009870
 **** Fit       0.009777
 **** Fit       0.009682
 **** Fit       0.009582
 **** Fit       0.009477
 **** Fit       0.009367
 **** Fit       0.009254
 **** Fit       0.009141
 **** Fit       0.009030
 **** Fit       0.008929
 **** Fit       0.009854
 **** Fit       0.009691
 **** Fit       0.009556
 **** Fit       0.009437
 **** Fit       0.009326
 **** Fit       0.009216
 **** Fit       0.009103
 **** Fit       0.008985
 **** Fit       0.008861
 **** Fit       0.008731
 **** Fit       0.008596
 **** Fit       0.008458
 **** Fit       0.008322
 **** Fit       0.009269
 **** Fit       0.009091
 **** Fit       0.008942
 **** Fit       0.008810
 **** Fit       0.008685
 **** Fit       0.008561
 **** Fit       0.008433
 **** Fit       0.008298
 **** Fit       0.008156
 **** Fit       0.008006
 **** Fit       0.007849
 **** Fit       0.007687
 **** Fit       0.008406
 **** Fit       0.008245
 **** Fit       0.008102
 **** Fit       0.007966
 **** Fit       0.007830
 **** Fit       0.007688
 **** Fit       0.007538
 **** Fit       0.007379
 **** Fit       0.007208
 **** Fit       0.007028
 **** Fit       0.006840
 **** Fit       0.007633
 **** Fit       0.007465
 **** Fit       0.007314
 **** Fit       0.007170
 **** Fit       0.007024
 **** Fit       0.006872
 **** Fit       0.006709
 **** Fit       0.006532
 **** Fit       0.006342
 **** Fit       0.006137
 **** Fit       0.006557
 **** Fit       0.006409
 **** Fit       0.006266
 **** Fit       0.006117
 **** Fit       0.005959
 **** Fit       0.005786
 **** Fit       0.005595
 **** Fit       0.005242
 **** Fit       0.005099
 **** Fit       0.004941
 -----------------------------------------------------------------
 Leave Link  602 at Sat Jan 11 12:27:18 2020, MaxMem=    33554432 cpu:         2.0

 Test job not archived.
 1\1\GINC-TREASON-MS-7982\SP\RHF\6-31G(d)\C6H7N1\TREASON\11-Jan-2020\0\
 \# HF/6-31G* SCF=Tight Pop=MK IOp(6/33=2,6/41=10,6/42=17)\\Title Card 
 Required\\0,1\C,0,1.171823,1.202607,-0.003378\C,0,-0.221258,1.20825,0.
 005175\C,0,-0.938744,0.000005,0.010139\C,0,-0.221264,-1.208245,0.00517
 4\C,0,1.171814,-1.202613,-0.003376\C,0,1.881692,-0.000004,-0.00833\H,0
 ,1.705685,2.149751,-0.008797\H,0,-0.763316,2.151753,0.013278\H,0,-0.76
 3336,-2.15174,0.013273\H,0,1.70567,-2.14976,-0.008797\H,0,2.967653,-0.
 000007,-0.016608\N,0,-2.33738,0.000001,0.07891\H,0,-2.777535,0.834905,
 -0.288575\H,0,-2.777536,-0.834906,-0.288567\\Version=EM64L-G09RevD.01\
 State=1-A\HF=-285.7291048\RMSD=3.296e-09\Dipole=-0.3611003,-0.0000032,
 -0.4968358\Quadrupole=3.1131812,2.4421166,-5.5552978,0.0000244,2.83074
 84,-0.0000036\PG=C01 [X(C6H7N1)]\\@


 I LOVE MANKIND - IT'S PEOPLE I CAN'T STAND.
     -- LINUS OF PEANUTS
 Job cpu time:       0 days  0 hours  0 minutes  3.8 seconds.
 File lengths (MBytes):  RWF=      7 Int=      0 D2E=      0 Chk=      2 Scr=      1
 Normal termination of Gaussian 09 at Sat Jan 11 12:27:18 2020.
